 argument  1 = INPUT.nw
                                         
                                         
 
 
              Northwest Computational Chemistry Package (NWChem) 6.6
              ------------------------------------------------------
 
 
                    Environmental Molecular Sciences Laboratory
                       Pacific Northwest National Laboratory
                                Richland, WA 99352
 
                              Copyright (c) 1994-2015
                       Pacific Northwest National Laboratory
                            Battelle Memorial Institute
 
             NWChem is an open-source computational chemistry package
                        distributed under the terms of the
                      Educational Community License (ECL) 2.0
             A copy of the license is included with this distribution
                              in the LICENSE.TXT file
 
                                  ACKNOWLEDGMENT
                                  --------------

            This software and its documentation were developed at the
            EMSL at Pacific Northwest National Laboratory, a multiprogram
            national laboratory, operated for the U.S. Department of Energy
            by Battelle under Contract Number DE-AC05-76RL01830. Support
            for this work was provided by the Department of Energy Office
            of Biological and Environmental Research, Office of Basic
            Energy Sciences, and the Office of Advanced Scientific Computing.


           Job information
           ---------------

    hostname        = efefer-X301A
    program         = nwchem
    date            = Mon Nov 21 16:10:43 2016

    compiled        = Sen_Nov_21_15:16:49_2016
    source          = /home/efefer/mysoftwares/nwchem-6.6
    nwchem branch   = 6.6
    nwchem revision = 27746
    ga revision     = 10594
    input           = INPUT.nw
    prefix          = CO.
    data base       = ./CO.db
    status          = startup
    nproc           =        1
    time left       =     -1s



           Memory information
           ------------------

    heap     =   61857726 doubles =    471.9 Mbytes
    stack    =   61857723 doubles =    471.9 Mbytes
    global   =  123715456 doubles =    943.9 Mbytes (distinct from heap & stack)
    total    =  247430905 doubles =   1887.7 Mbytes
    verify   = yes
    hardfail = no 


           Directory information
           ---------------------
 
  0 permanent = .
  0 scratch   = .
 
 
 
 
                                NWChem Input Module
                                -------------------
 
 

 Scaling coordinates for geometry "geometry" by  1.889725989
 (inverse scale =  0.529177249)

 ORDER OF PRIMARY AXIS IS BEING SET TO 4
 C4V symmetry detected

          ------
          auto-z
          ------
 
 
                             Geometry "geometry" -> ""
                             -------------------------
 
 Output coordinates in angstroms (scale by  1.889725989 to convert to a.u.)
 
  No.       Tag          Charge          X              Y              Z
 ---- ---------------- ---------- -------------- -------------- --------------
    1 C                    6.0000     0.00000000     0.00000000    -0.72753143
    2 O                    8.0000     0.00000000     0.00000000     0.54564857
 
      Atomic Mass 
      ----------- 
 
      C                 12.000000
      O                 15.994910
 

 Effective nuclear repulsion energy (a.u.)      19.9504453039

            Nuclear Dipole moment (a.u.) 
            ----------------------------
        X                 Y               Z
 ---------------- ---------------- ----------------
     0.0000000000     0.0000000000     0.0000000000
 
      Symmetry information
      --------------------
 
 Group name             C4v       
 Group number             18
 Group order               8
 No. of unique centers     2
 
      Symmetry unique atoms
 
     1    2
 


                                Z-matrix (autoz)
                                -------- 

 Units are Angstrom for bonds and degrees for angles
 
      Type          Name      I     J     K     L     M      Value
      ----------- --------  ----- ----- ----- ----- ----- ----------
    1 Stretch                  1     2                       1.27318
 
 
            XYZ format geometry
            -------------------
     2
 geometry
 C                     0.00000000     0.00000000    -0.72753143
 O                     0.00000000     0.00000000     0.54564857
 
 ==============================================================================
                                internuclear distances
 ------------------------------------------------------------------------------
       center one      |      center two      | atomic units |  angstroms
 ------------------------------------------------------------------------------
    2 O                |   1 C                |     2.40596  |     1.27318
 ------------------------------------------------------------------------------
                         number of included internuclear distances:          1
 ==============================================================================





 Summary of "ao basis" -> "" (cartesian)
 ------------------------------------------------------------------------------
       Tag                 Description            Shells   Functions and Types
 ---------------- ------------------------------  ------  ---------------------
 *                           3-21g                    on all atoms 


 
 
                           NWChem Geometry Optimization
                           ----------------------------
 
 
 maximum gradient threshold         (gmax) =   0.000450
 rms gradient threshold             (grms) =   0.000300
 maximum cartesian step threshold   (xmax) =   0.001800
 rms cartesian step threshold       (xrms) =   0.001200
 fixed trust radius                (trust) =   0.300000
 maximum step size to saddle      (sadstp) =   0.100000
 energy precision                  (eprec) =   5.0D-06
 maximum number of steps          (nptopt) = 1000
 initial hessian option           (inhess) =    0
 line search option               (linopt) =    1
 hessian update option            (modupd) =    1
 saddle point option              (modsad) =    0
 initial eigen-mode to follow     (moddir) =    0
 initial variable to follow       (vardir) =    0
 follow first negative mode     (firstneg) =    T
 apply conjugacy                    (opcg) =    F
 source of zmatrix                         =   autoz   


          -------------------
          Energy Minimization
          -------------------

 
 Names of Z-matrix variables 
    1         
 
 Variables with the same non-blank name are constrained to be equal
 
 
 Using old Hessian from previous optimization

          --------
          Step   0
          --------
 
 
                         Geometry "geometry" -> "geometry"
                         ---------------------------------
 
 Output coordinates in angstroms (scale by  1.889725989 to convert to a.u.)
 
  No.       Tag          Charge          X              Y              Z
 ---- ---------------- ---------- -------------- -------------- --------------
    1 C                    6.0000     0.00000000     0.00000000    -0.72753143
    2 O                    8.0000     0.00000000     0.00000000     0.54564857
 
      Atomic Mass 
      ----------- 
 
      C                 12.000000
      O                 15.994910
 

 Effective nuclear repulsion energy (a.u.)      19.9504453039

            Nuclear Dipole moment (a.u.) 
            ----------------------------
        X                 Y               Z
 ---------------- ---------------- ----------------
     0.0000000000     0.0000000000     0.0000000000
 
      Symmetry information
      --------------------
 
 Group name             C4v       
 Group number             18
 Group order               8
 No. of unique centers     2
 
      Symmetry unique atoms
 
     1    2
 
 
                                 NWChem DFT Module
                                 -----------------
 
 
                      Basis "ao basis" -> "ao basis" (cartesian)
                      -----
  C (Carbon)
  ----------
            Exponent  Coefficients 
       -------------- ---------------------------------------------------------
  1 S  1.72256000E+02  0.061767
  1 S  2.59109000E+01  0.358794
  1 S  5.53335000E+00  0.700713
 
  2 S  3.66498000E+00 -0.395897
  2 S  7.70545000E-01  1.215840
 
  3 P  3.66498000E+00  0.236460
  3 P  7.70545000E-01  0.860619
 
  4 S  1.95857000E-01  1.000000
 
  5 P  1.95857000E-01  1.000000
 
  O (Oxygen)
  ----------
            Exponent  Coefficients 
       -------------- ---------------------------------------------------------
  1 S  3.22037000E+02  0.059239
  1 S  4.84308000E+01  0.351500
  1 S  1.04206000E+01  0.707658
 
  2 S  7.40294000E+00 -0.404453
  2 S  1.57620000E+00  1.221560
 
  3 P  7.40294000E+00  0.244586
  3 P  1.57620000E+00  0.853955
 
  4 S  3.73684000E-01  1.000000
 
  5 P  3.73684000E-01  1.000000
 


 Summary of "ao basis" -> "ao basis" (cartesian)
 ------------------------------------------------------------------------------
       Tag                 Description            Shells   Functions and Types
 ---------------- ------------------------------  ------  ---------------------
 C                           3-21g                   5        9   3s2p
 O                           3-21g                   5        9   3s2p




 Summary of "ao basis" -> "ao basis" (cartesian)
 ------------------------------------------------------------------------------
       Tag                 Description            Shells   Functions and Types
 ---------------- ------------------------------  ------  ---------------------
 C                           3-21g                   5        9   3s2p
 O                           3-21g                   5        9   3s2p


      Symmetry analysis of basis
      --------------------------
 
        a1         10
        a2          0
        b1          0
        b2          0
        e           8
 
  Caching 1-el integrals 
 
            General Information
            -------------------
          SCF calculation type: DFT
          Wavefunction type:  closed shell.
          No. of atoms     :     2
          No. of electrons :    14
           Alpha electrons :     7
            Beta electrons :     7
          Charge           :     0
          Spin multiplicity:     1
          Use of symmetry is: on ; symmetry adaption is: on 
          Maximum number of iterations: 128
          AO basis - number of functions:    18
                     number of shells:    10
          Convergence on energy requested: 1.00D-06
          Convergence on density requested: 1.00D-05
          Convergence on gradient requested: 5.00D-04
 
              XC Information
              --------------
                        Slater Exchange Functional  1.000 local    
                      VWN V Correlation Functional  1.000 local    
 
             Grid Information
             ----------------
          Grid used for XC integration:  medium    
          Radial quadrature: Mura-Knowles        
          Angular quadrature: Lebedev. 
          Tag              B.-S. Rad. Rad. Pts. Rad. Cut. Ang. Pts.
          ---              ---------- --------- --------- ---------
          C                   0.70       49           5.0       434
          O                   0.60       49           5.0       434
          Grid pruning is: on 
          Number of quadrature shells:    98
          Spatial weights used:  Erf1
 
          Convergence Information
          -----------------------
          Convergence aids based upon iterative change in 
          total energy or number of iterations. 
          Levelshifting, if invoked, occurs when the 
          HOMO/LUMO gap drops below (HL_TOL): 1.00D-02
          DIIS, if invoked, will attempt to extrapolate 
          using up to (NFOCK): 10 stored Fock matrices.

                    Damping( 0%)  Levelshifting(0.5)       DIIS
                  --------------- ------------------- ---------------
          dE  on:    start            ASAP                start   
          dE off:    2 iters        128 iters           128 iters 

 
      Screening Tolerance Information
      -------------------------------
          Density screening/tol_rho: 1.00D-10
          AO Gaussian exp screening on grid/accAOfunc:  14
          CD Gaussian exp screening on grid/accCDfunc:  20
          XC Gaussian exp screening on grid/accXCfunc:  20
          Schwarz screening/accCoul: 1.00D-08

 
      Superposition of Atomic Density Guess
      -------------------------------------
 
 Sum of atomic energies:        -111.83245401
 
      Non-variational initial energy
      ------------------------------

 Total energy =    -111.896185
 1-e energy   =    -192.507423
 2-e energy   =      60.660793
 HOMO         =      -0.364839
 LUMO         =       0.027452
 
 
      Symmetry analysis of molecular orbitals - initial
      -------------------------------------------------
 
  Numbering of irreducible representations: 
 
     1 a1          2 a2          3 b1          4 b2          5 e       
 
  Orbital symmetries:
 
     1 a1          2 a1          3 a1          4 a1          5 e       
     6 e           7 a1          8 e           9 e          10 a1      
    11 e          12 e          13 a1         14 a1         15 e       
    16 e          17 a1      
 
   Time after variat. SCF:      0.1
   Time prior to 1st pass:      0.1

 #quartets = 1.513D+03 #integrals = 4.701D+03 #direct =  0.0% #cached =100.0%


 Integral file          = ./CO.aoints.0
 Record size in doubles =  65536        No. of integs per rec  =  43688
 Max. records in memory =      2        Max. records in file   =  49521
 No. of bits per label  =      8        No. of bits per value  =     64


 Grid_pts file          = ./CO.gridpts.0
 Record size in doubles =  12289        No. of grid_pts per rec  =   3070
 Max. records in memory =     17        Max. recs in file   =    264094


           Memory utilization after 1st SCF pass: 
           Heap Space remaining (MW):       61.52            61516438
          Stack Space remaining (MW):       61.86            61857508

   convergence    iter        energy       DeltaE   RMS-Dens  Diis-err    time
 ---------------- ----- ----------------- --------- --------- ---------  ------
 d= 0,ls=0.0,diis     1   -111.6467448054 -1.32D+02  1.04D-01  9.75D-01     0.1
 d= 0,ls=0.0,diis     2   -109.7760738871  1.87D+00  8.52D-02  1.73D+01     0.1
 d= 0,ls=0.0,diis     3   -111.7611096814 -1.99D+00  5.40D-03  3.51D-02     0.2
 d= 0,ls=0.0,diis     4   -111.7634044617 -2.29D-03  1.98D-03  3.02D-03     0.2
 d= 0,ls=0.0,diis     5   -111.7637467259 -3.42D-04  2.96D-04  2.22D-04     0.2
  Resetting Diis
 d= 0,ls=0.0,diis     6   -111.7637664253 -1.97D-05  4.54D-05  2.51D-07     0.2
 d= 0,ls=0.0,diis     7   -111.7637664720 -4.67D-08  5.74D-06  1.59D-09     0.2


         Total DFT energy =     -111.763766471962
      One electron energy =     -192.481149449908
           Coulomb energy =       73.588043900392
    Exchange-Corr. energy =      -12.821106226319
 Nuclear repulsion energy =       19.950445303873

 Numeric. integr. density =       13.999999111304

     Total iterative time =      0.1s


 
                  Occupations of the irreducible representations
                  ----------------------------------------------
 
                     irrep           alpha         beta
                     --------     --------     --------
                     a1                5.0          5.0
                     a2                0.0          0.0
                     b1                0.0          0.0
                     b2                0.0          0.0
                     e                 2.0          2.0
 
 
                       DFT Final Molecular Orbital Analysis
                       ------------------------------------
 
 Vector    1  Occ=2.000000D+00  E=-1.862007D+01  Symmetry=a1
              MO Center=  0.0D+00,  0.0D+00,  5.5D-01, r^2= 1.6D-02
   Bfn.  Coefficient  Atom+Function         Bfn.  Coefficient  Atom+Function  
  ----- ------------  ---------------      ----- ------------  ---------------
    10      0.981339  2 O  s          
 
 Vector    2  Occ=2.000000D+00  E=-9.868543D+00  Symmetry=a1
              MO Center=  0.0D+00,  0.0D+00, -7.3D-01, r^2= 2.9D-02
   Bfn.  Coefficient  Atom+Function         Bfn.  Coefficient  Atom+Function  
  ----- ------------  ---------------      ----- ------------  ---------------
     1      0.983214  1 C  s          
 
 Vector    3  Occ=2.000000D+00  E=-1.018599D+00  Symmetry=a1
              MO Center=  2.3D-17, -1.9D-17,  2.0D-01, r^2= 4.7D-01
   Bfn.  Coefficient  Atom+Function         Bfn.  Coefficient  Atom+Function  
  ----- ------------  ---------------      ----- ------------  ---------------
    15      0.658141  2 O  s                 10     -0.216855  2 O  s          
    11      0.206729  2 O  s                  5      0.165037  1 C  pz         
    14     -0.154949  2 O  pz         
 
 Vector    4  Occ=2.000000D+00  E=-4.941264D-01  Symmetry=a1
              MO Center=  1.5D-17, -6.8D-18,  3.1D-01, r^2= 1.1D+00
   Bfn.  Coefficient  Atom+Function         Bfn.  Coefficient  Atom+Function  
  ----- ------------  ---------------      ----- ------------  ---------------
    15      0.555839  2 O  s                  6     -0.436638  1 C  s          
    14      0.335232  2 O  pz                18      0.292573  2 O  pz         
     2     -0.203003  1 C  s                  1      0.163990  1 C  s          
 
 Vector    5  Occ=2.000000D+00  E=-3.898768D-01  Symmetry=e
              MO Center= -1.6D-20, -6.8D-20,  2.0D-01, r^2= 9.0D-01
   Bfn.  Coefficient  Atom+Function         Bfn.  Coefficient  Atom+Function  
  ----- ------------  ---------------      ----- ------------  ---------------
    13      0.444316  2 O  py                17      0.446328  2 O  py         
     4      0.267707  1 C  py                 8      0.235054  1 C  py         
 
 Vector    6  Occ=2.000000D+00  E=-3.898768D-01  Symmetry=e
              MO Center= -1.4D-19,  3.2D-20,  2.0D-01, r^2= 9.0D-01
   Bfn.  Coefficient  Atom+Function         Bfn.  Coefficient  Atom+Function  
  ----- ------------  ---------------      ----- ------------  ---------------
    12      0.444316  2 O  px                16      0.446328  2 O  px         
     3      0.267707  1 C  px                 7      0.235054  1 C  px         
 
 Vector    7  Occ=2.000000D+00  E=-3.172752D-01  Symmetry=a1
              MO Center= -5.9D-17,  2.1D-18, -7.2D-01, r^2= 1.2D+00
   Bfn.  Coefficient  Atom+Function         Bfn.  Coefficient  Atom+Function  
  ----- ------------  ---------------      ----- ------------  ---------------
     6      0.713940  1 C  s                  5     -0.364000  1 C  pz         
    18      0.319700  2 O  pz                14      0.299442  2 O  pz         
     9     -0.160636  1 C  pz         
 
 Vector    8  Occ=0.000000D+00  E=-1.064059D-01  Symmetry=e
              MO Center= -2.2D-17,  5.9D-18, -4.1D-01, r^2= 1.2D+00
   Bfn.  Coefficient  Atom+Function         Bfn.  Coefficient  Atom+Function  
  ----- ------------  ---------------      ----- ------------  ---------------
     7      0.543298  1 C  px                 3      0.491558  1 C  px         
    16     -0.409397  2 O  px                12     -0.337919  2 O  px         
 
 Vector    9  Occ=0.000000D+00  E=-1.064059D-01  Symmetry=e
              MO Center= -9.7D-19, -3.6D-18, -4.1D-01, r^2= 1.2D+00
   Bfn.  Coefficient  Atom+Function         Bfn.  Coefficient  Atom+Function  
  ----- ------------  ---------------      ----- ------------  ---------------
     8      0.543298  1 C  py                 4      0.491558  1 C  py         
    17     -0.409397  2 O  py                13     -0.337919  2 O  py         
 
 Vector   10  Occ=0.000000D+00  E= 2.226851D-01  Symmetry=a1
              MO Center=  7.7D-17, -8.5D-17, -5.0D-01, r^2= 1.7D+00
   Bfn.  Coefficient  Atom+Function         Bfn.  Coefficient  Atom+Function  
  ----- ------------  ---------------      ----- ------------  ---------------
     9      1.290073  1 C  pz                15     -1.258049  2 O  s          
     6      1.044472  1 C  s                 18      0.719943  2 O  pz         
     5      0.346014  1 C  pz                14      0.305327  2 O  pz         
 
 Vector   11  Occ=0.000000D+00  E= 6.237580D-01  Symmetry=e
              MO Center= -9.7D-17, -2.8D-16, -7.8D-01, r^2= 1.5D+00
   Bfn.  Coefficient  Atom+Function         Bfn.  Coefficient  Atom+Function  
  ----- ------------  ---------------      ----- ------------  ---------------
     8     -1.024260  1 C  py                 4      0.973673  1 C  py         
     7     -0.348054  1 C  px                 3      0.330864  1 C  px         
 
 Vector   12  Occ=0.000000D+00  E= 6.237580D-01  Symmetry=e
              MO Center=  2.7D-17, -9.2D-18, -7.8D-01, r^2= 1.5D+00
   Bfn.  Coefficient  Atom+Function         Bfn.  Coefficient  Atom+Function  
  ----- ------------  ---------------      ----- ------------  ---------------
     7     -1.024260  1 C  px                 3      0.973673  1 C  px         
     8      0.348054  1 C  py                 4     -0.330864  1 C  py         
 
 Vector   13  Occ=0.000000D+00  E= 6.414182D-01  Symmetry=a1
              MO Center= -1.5D-16,  3.3D-17, -7.4D-01, r^2= 1.3D+00
   Bfn.  Coefficient  Atom+Function         Bfn.  Coefficient  Atom+Function  
  ----- ------------  ---------------      ----- ------------  ---------------
     9     -1.104813  1 C  pz                 5      1.075780  1 C  pz         
    15      0.421286  2 O  s                 14      0.297308  2 O  pz         
     6     -0.213373  1 C  s                  2      0.170688  1 C  s          
 
 Vector   14  Occ=0.000000D+00  E= 9.763533D-01  Symmetry=a1
              MO Center=  3.5D-16,  2.9D-16, -7.5D-01, r^2= 1.3D+00
   Bfn.  Coefficient  Atom+Function         Bfn.  Coefficient  Atom+Function  
  ----- ------------  ---------------      ----- ------------  ---------------
     6     -1.546529  1 C  s                  2      1.475095  1 C  s          
    15      0.391427  2 O  s                 18     -0.295586  2 O  pz         
    14      0.258434  2 O  pz                 5     -0.158945  1 C  pz         
 
 Vector   15  Occ=0.000000D+00  E= 1.329940D+00  Symmetry=e
              MO Center= -2.6D-16, -1.4D-16,  5.3D-01, r^2= 9.1D-01
   Bfn.  Coefficient  Atom+Function         Bfn.  Coefficient  Atom+Function  
  ----- ------------  ---------------      ----- ------------  ---------------
    16     -0.968810  2 O  px                12      0.885515  2 O  px         
    17     -0.532282  2 O  py                13      0.486518  2 O  py         
     7      0.292818  1 C  px                 8      0.160880  1 C  py         
 
 Vector   16  Occ=0.000000D+00  E= 1.329940D+00  Symmetry=e
              MO Center=  8.7D-17, -1.6D-16,  5.3D-01, r^2= 9.1D-01
   Bfn.  Coefficient  Atom+Function         Bfn.  Coefficient  Atom+Function  
  ----- ------------  ---------------      ----- ------------  ---------------
    17     -0.968810  2 O  py                13      0.885515  2 O  py         
    16      0.532282  2 O  px                12     -0.486518  2 O  px         
     8      0.292818  1 C  py                 7     -0.160880  1 C  px         
 
 Vector   17  Occ=0.000000D+00  E= 1.423559D+00  Symmetry=a1
              MO Center=  7.4D-18,  3.8D-16,  8.7D-01, r^2= 7.4D-01
   Bfn.  Coefficient  Atom+Function         Bfn.  Coefficient  Atom+Function  
  ----- ------------  ---------------      ----- ------------  ---------------
    18      1.293369  2 O  pz                14     -0.938965  2 O  pz         
     2      0.527779  1 C  s                  5      0.276891  1 C  pz         
    11     -0.231287  2 O  s          
 

 center of mass
 --------------
 x =   0.00000000 y =   0.00000000 z =  -0.00018748

 moments of inertia (a.u.)
 ------------------
          39.688186817038           0.000000000000           0.000000000000
           0.000000000000          39.688186817038           0.000000000000
           0.000000000000           0.000000000000           0.000000000000
 
     Multipole analysis of the density
     ---------------------------------
 
     L   x y z        total         alpha         beta         nuclear
     -   - - -        -----         -----         ----         -------
     0   0 0 0     -0.000000     -7.000000     -7.000000     14.000000
 
     1   1 0 0      0.000000      0.000000      0.000000      0.000000
     1   0 1 0      0.000000      0.000000      0.000000      0.000000
     1   0 0 1     -0.027898     -0.013949     -0.013949      0.000000
 
     2   2 0 0     -7.548504     -3.774252     -3.774252      0.000000
     2   1 1 0     -0.000000     -0.000000     -0.000000      0.000000
     2   1 0 1      0.000000      0.000000      0.000000      0.000000
     2   0 2 0     -7.548504     -3.774252     -3.774252      0.000000
     2   0 1 1      0.000000      0.000000      0.000000      0.000000
     2   0 0 2     -9.283728    -14.565264    -14.565264     19.846800
 

 Parallel integral file used       1 records with       0 large values

 
            General Information
            -------------------
          SCF calculation type: DFT
          Wavefunction type:  closed shell.
          No. of atoms     :     2
          No. of electrons :    14
           Alpha electrons :     7
            Beta electrons :     7
          Charge           :     0
          Spin multiplicity:     1
          Use of symmetry is: on ; symmetry adaption is: on 
          Maximum number of iterations: 128
          AO basis - number of functions:    18
                     number of shells:    10
          Convergence on energy requested: 1.00D-06
          Convergence on density requested: 1.00D-05
          Convergence on gradient requested: 5.00D-04
 
              XC Information
              --------------
                        Slater Exchange Functional  1.000 local    
                      VWN V Correlation Functional  1.000 local    
 
             Grid Information
             ----------------
          Grid used for XC integration:  medium    
          Radial quadrature: Mura-Knowles        
          Angular quadrature: Lebedev. 
          Tag              B.-S. Rad. Rad. Pts. Rad. Cut. Ang. Pts.
          ---              ---------- --------- --------- ---------
          C                   0.70       49           5.0       434
          O                   0.60       49           5.0       434
          Grid pruning is: on 
          Number of quadrature shells:    98
          Spatial weights used:  Erf1
 
          Convergence Information
          -----------------------
          Convergence aids based upon iterative change in 
          total energy or number of iterations. 
          Levelshifting, if invoked, occurs when the 
          HOMO/LUMO gap drops below (HL_TOL): 1.00D-02
          DIIS, if invoked, will attempt to extrapolate 
          using up to (NFOCK): 10 stored Fock matrices.

                    Damping( 0%)  Levelshifting(0.5)       DIIS
                  --------------- ------------------- ---------------
          dE  on:    start            ASAP                start   
          dE off:    2 iters        128 iters           128 iters 

 
      Screening Tolerance Information
      -------------------------------
          Density screening/tol_rho: 1.00D-10
          AO Gaussian exp screening on grid/accAOfunc:  14
          CD Gaussian exp screening on grid/accCDfunc:  20
          XC Gaussian exp screening on grid/accXCfunc:  20
          Schwarz screening/accCoul: 1.00D-08

 
 
                            NWChem DFT Gradient Module
                            --------------------------
 
 

  charge          =   0.00
  wavefunction    = closed shell

  Using symmetry


                         DFT ENERGY GRADIENTS

    atom               coordinates                        gradient
                 x          y          z           x          y          z
   1 C       0.000000   0.000000  -1.374835    0.000000   0.000000  -0.157318
   2 O       0.000000   0.000000   1.031126    0.000000   0.000000   0.157318
 
                 ----------------------------------------
                 |  Time  |  1-e(secs)   |  2-e(secs)   |
                 ----------------------------------------
                 |  CPU   |       0.00   |       0.04   |
                 ----------------------------------------
                 |  WALL  |       0.00   |       0.04   |
                 ----------------------------------------

@ Step       Energy      Delta E   Gmax     Grms     Xrms     Xmax   Walltime
@ ---- ---------------- -------- -------- -------- -------- -------- --------
@    0    -111.76376647  0.0D+00  0.15732  0.15732  0.00000  0.00000      0.3
                                                                    



                                Z-matrix (autoz)
                                -------- 

 Units are Angstrom for bonds and degrees for angles
 
      Type          Name      I     J     K     L     M      Value     Gradient
      ----------- --------  ----- ----- ----- ----- ----- ---------- ----------
    1 Stretch                  1     2                       1.27318    0.15732
 
 
                                 NWChem DFT Module
                                 -----------------
 
 


 Summary of "ao basis" -> "ao basis" (cartesian)
 ------------------------------------------------------------------------------
       Tag                 Description            Shells   Functions and Types
 ---------------- ------------------------------  ------  ---------------------
 C                           3-21g                   5        9   3s2p
 O                           3-21g                   5        9   3s2p


      Symmetry analysis of basis
      --------------------------
 
        a1         10
        a2          0
        b1          0
        b2          0
        e           8
 
  Caching 1-el integrals 
 
            General Information
            -------------------
          SCF calculation type: DFT
          Wavefunction type:  closed shell.
          No. of atoms     :     2
          No. of electrons :    14
           Alpha electrons :     7
            Beta electrons :     7
          Charge           :     0
          Spin multiplicity:     1
          Use of symmetry is: on ; symmetry adaption is: on 
          Maximum number of iterations: 128
          AO basis - number of functions:    18
                     number of shells:    10
          Convergence on energy requested: 1.00D-06
          Convergence on density requested: 1.00D-05
          Convergence on gradient requested: 5.00D-04
 
              XC Information
              --------------
                        Slater Exchange Functional  1.000 local    
                      VWN V Correlation Functional  1.000 local    
 
             Grid Information
             ----------------
          Grid used for XC integration:  medium    
          Radial quadrature: Mura-Knowles        
          Angular quadrature: Lebedev. 
          Tag              B.-S. Rad. Rad. Pts. Rad. Cut. Ang. Pts.
          ---              ---------- --------- --------- ---------
          C                   0.70       49           5.0       434
          O                   0.60       49           5.0       434
          Grid pruning is: on 
          Number of quadrature shells:    98
          Spatial weights used:  Erf1
 
          Convergence Information
          -----------------------
          Convergence aids based upon iterative change in 
          total energy or number of iterations. 
          Levelshifting, if invoked, occurs when the 
          HOMO/LUMO gap drops below (HL_TOL): 1.00D-02
          DIIS, if invoked, will attempt to extrapolate 
          using up to (NFOCK): 10 stored Fock matrices.

                    Damping( 0%)  Levelshifting(0.5)       DIIS
                  --------------- ------------------- ---------------
          dE  on:    start            ASAP                start   
          dE off:    2 iters        128 iters           128 iters 

 
      Screening Tolerance Information
      -------------------------------
          Density screening/tol_rho: 1.00D-10
          AO Gaussian exp screening on grid/accAOfunc:  14
          CD Gaussian exp screening on grid/accCDfunc:  20
          XC Gaussian exp screening on grid/accXCfunc:  20
          Schwarz screening/accCoul: 1.00D-08


 Loading old vectors from job with title :



 
      Symmetry analysis of molecular orbitals - initial
      -------------------------------------------------
 
  Numbering of irreducible representations: 
 
     1 a1          2 a2          3 b1          4 b2          5 e       
 
  Orbital symmetries:
 
     1 a1          2 a1          3 a1          4 a1          5 e       
     6 e           7 a1          8 e           9 e          10 a1      
    11 e          12 e          13 a1         14 a1         15 e       
    16 e          17 a1      
 
   Time after variat. SCF:      0.3
   Time prior to 1st pass:      0.3

 #quartets = 1.536D+03 #integrals = 4.707D+03 #direct =  0.0% #cached =100.0%


 Integral file          = ./CO.aoints.0
 Record size in doubles =  65536        No. of integs per rec  =  43688
 Max. records in memory =      2        Max. records in file   =  49521
 No. of bits per label  =      8        No. of bits per value  =     64


 Grid_pts file          = ./CO.gridpts.0
 Record size in doubles =  12289        No. of grid_pts per rec  =   3070
 Max. records in memory =     17        Max. recs in file   =    264094


           Memory utilization after 1st SCF pass: 
           Heap Space remaining (MW):       61.52            61516438
          Stack Space remaining (MW):       61.86            61857508

   convergence    iter        energy       DeltaE   RMS-Dens  Diis-err    time
 ---------------- ----- ----------------- --------- --------- ---------  ------
 d= 0,ls=0.0,diis     1   -111.7769124265 -1.33D+02  9.72D-03  3.41D-02     0.3
 d= 0,ls=0.0,diis     2   -111.7779972282 -1.08D-03  7.40D-03  3.30D-02     0.3
 d= 0,ls=0.0,diis     3   -111.7758541218  2.14D-03  5.41D-03  5.12D-02     0.3
 d= 0,ls=0.0,diis     4   -111.7806319679 -4.78D-03  8.53D-04  8.39D-04     0.3
 d= 0,ls=0.0,diis     5   -111.7807279097 -9.59D-05  2.13D-05  1.04D-06     0.3
 d= 0,ls=0.0,diis     6   -111.7807280153 -1.06D-07  2.69D-06  8.96D-09     0.3


         Total DFT energy =     -111.780728015251
      One electron energy =     -194.877764680912
           Coulomb energy =       74.763345597645
    Exchange-Corr. energy =      -12.881549007620
 Nuclear repulsion energy =       21.215240075636

 Numeric. integr. density =       14.000000446621

     Total iterative time =      0.1s


 
                  Occupations of the irreducible representations
                  ----------------------------------------------
 
                     irrep           alpha         beta
                     --------     --------     --------
                     a1                5.0          5.0
                     a2                0.0          0.0
                     b1                0.0          0.0
                     b2                0.0          0.0
                     e                 2.0          2.0
 
 
                       DFT Final Molecular Orbital Analysis
                       ------------------------------------
 
 Vector    1  Occ=2.000000D+00  E=-1.862121D+01  Symmetry=a1
              MO Center= -1.9D-18, -2.1D-18,  5.1D-01, r^2= 1.6D-02
   Bfn.  Coefficient  Atom+Function         Bfn.  Coefficient  Atom+Function  
  ----- ------------  ---------------      ----- ------------  ---------------
    10      0.981431  2 O  s          
 
 Vector    2  Occ=2.000000D+00  E=-9.852120D+00  Symmetry=a1
              MO Center= -1.9D-19,  1.3D-19, -6.9D-01, r^2= 2.9D-02
   Bfn.  Coefficient  Atom+Function         Bfn.  Coefficient  Atom+Function  
  ----- ------------  ---------------      ----- ------------  ---------------
     1      0.983152  1 C  s          
 
 Vector    3  Occ=2.000000D+00  E=-1.060443D+00  Symmetry=a1
              MO Center= -5.3D-17,  7.7D-17,  1.5D-01, r^2= 4.4D-01
   Bfn.  Coefficient  Atom+Function         Bfn.  Coefficient  Atom+Function  
  ----- ------------  ---------------      ----- ------------  ---------------
    15      0.646183  2 O  s                 10     -0.214792  2 O  s          
    11      0.205193  2 O  s                  5      0.183835  1 C  pz         
    14     -0.171245  2 O  pz                18     -0.153625  2 O  pz         
 
 Vector    4  Occ=2.000000D+00  E=-4.906525D-01  Symmetry=a1
              MO Center= -7.5D-17,  8.1D-17,  4.2D-01, r^2= 8.9D-01
   Bfn.  Coefficient  Atom+Function         Bfn.  Coefficient  Atom+Function  
  ----- ------------  ---------------      ----- ------------  ---------------
    15      0.566397  2 O  s                 14      0.367176  2 O  pz         
     6     -0.362356  1 C  s                 18      0.316517  2 O  pz         
     2     -0.191715  1 C  s          
 
 Vector    5  Occ=2.000000D+00  E=-4.123933D-01  Symmetry=e
              MO Center=  1.8D-18,  3.5D-19,  1.8D-01, r^2= 8.6D-01
   Bfn.  Coefficient  Atom+Function         Bfn.  Coefficient  Atom+Function  
  ----- ------------  ---------------      ----- ------------  ---------------
    12      0.448403  2 O  px                16      0.443310  2 O  px         
     3      0.276979  1 C  px                 7      0.222078  1 C  px         
 
 Vector    6  Occ=2.000000D+00  E=-4.123933D-01  Symmetry=e
              MO Center= -7.2D-19,  3.7D-18,  1.8D-01, r^2= 8.6D-01
   Bfn.  Coefficient  Atom+Function         Bfn.  Coefficient  Atom+Function  
  ----- ------------  ---------------      ----- ------------  ---------------
    13      0.448403  2 O  py                17      0.443310  2 O  py         
     4      0.276979  1 C  py                 8      0.222078  1 C  py         
 
 Vector    7  Occ=2.000000D+00  E=-3.119878D-01  Symmetry=a1
              MO Center= -1.7D-19, -4.1D-19, -8.0D-01, r^2= 1.1D+00
   Bfn.  Coefficient  Atom+Function         Bfn.  Coefficient  Atom+Function  
  ----- ------------  ---------------      ----- ------------  ---------------
     6      0.771287  1 C  s                  5     -0.367936  1 C  pz         
    18      0.285266  2 O  pz                14      0.269386  2 O  pz         
     1     -0.153965  1 C  s          
 
 Vector    8  Occ=0.000000D+00  E=-8.308285D-02  Symmetry=e
              MO Center=  4.7D-18,  2.7D-18, -4.0D-01, r^2= 1.2D+00
   Bfn.  Coefficient  Atom+Function         Bfn.  Coefficient  Atom+Function  
  ----- ------------  ---------------      ----- ------------  ---------------
     7      0.508450  1 C  px                 3      0.437276  1 C  px         
    16     -0.388026  2 O  px                12     -0.308132  2 O  px         
     8      0.294050  1 C  py                 4      0.252889  1 C  py         
    17     -0.224406  2 O  py                13     -0.178201  2 O  py         
 
 Vector    9  Occ=0.000000D+00  E=-8.308285D-02  Symmetry=e
              MO Center= -3.0D-17,  5.2D-17, -4.0D-01, r^2= 1.2D+00
   Bfn.  Coefficient  Atom+Function         Bfn.  Coefficient  Atom+Function  
  ----- ------------  ---------------      ----- ------------  ---------------
     8      0.508450  1 C  py                 4      0.437276  1 C  py         
    17     -0.388026  2 O  py                13     -0.308132  2 O  py         
     7     -0.294050  1 C  px                 3     -0.252889  1 C  px         
    16      0.224406  2 O  px                12      0.178201  2 O  px         
 
 Vector   10  Occ=0.000000D+00  E= 2.644115D-01  Symmetry=a1
              MO Center= -6.4D-20,  3.2D-19, -5.6D-01, r^2= 1.9D+00
   Bfn.  Coefficient  Atom+Function         Bfn.  Coefficient  Atom+Function  
  ----- ------------  ---------------      ----- ------------  ---------------
    15     -1.499308  2 O  s                  9      1.487884  1 C  pz         
     6      1.252228  1 C  s                 18      0.707696  2 O  pz         
     5      0.243339  1 C  pz                14      0.238257  2 O  pz         
 
 Vector   11  Occ=0.000000D+00  E= 6.228303D-01  Symmetry=e
              MO Center= -9.5D-17,  6.2D-16, -7.5D-01, r^2= 1.5D+00
   Bfn.  Coefficient  Atom+Function         Bfn.  Coefficient  Atom+Function  
  ----- ------------  ---------------      ----- ------------  ---------------
     8     -1.072539  1 C  py                 4      1.015691  1 C  py         
     7      0.163079  1 C  px                 3     -0.154436  1 C  px         
 
 Vector   12  Occ=0.000000D+00  E= 6.228303D-01  Symmetry=e
              MO Center= -7.0D-17, -1.1D-17, -7.5D-01, r^2= 1.5D+00
   Bfn.  Coefficient  Atom+Function         Bfn.  Coefficient  Atom+Function  
  ----- ------------  ---------------      ----- ------------  ---------------
     7     -1.072539  1 C  px                 3      1.015691  1 C  px         
     8     -0.163079  1 C  py                 4      0.154436  1 C  py         
 
 Vector   13  Occ=0.000000D+00  E= 7.021423D-01  Symmetry=a1
              MO Center=  5.4D-17, -1.0D-16, -6.9D-01, r^2= 1.2D+00
   Bfn.  Coefficient  Atom+Function         Bfn.  Coefficient  Atom+Function  
  ----- ------------  ---------------      ----- ------------  ---------------
     5      1.150914  1 C  pz                 9     -0.868609  1 C  pz         
    14      0.313159  2 O  pz                18      0.312170  2 O  pz         
 
 Vector   14  Occ=0.000000D+00  E= 9.884753D-01  Symmetry=a1
              MO Center=  1.4D-16, -5.4D-16, -6.4D-01, r^2= 1.2D+00
   Bfn.  Coefficient  Atom+Function         Bfn.  Coefficient  Atom+Function  
  ----- ------------  ---------------      ----- ------------  ---------------
     2      1.471635  1 C  s                  6     -1.471817  1 C  s          
    15      0.341571  2 O  s                 14      0.332099  2 O  pz         
    18     -0.213206  2 O  pz         
 
 Vector   15  Occ=0.000000D+00  E= 1.333589D+00  Symmetry=e
              MO Center= -9.7D-16, -8.9D-16,  4.9D-01, r^2= 9.2D-01
   Bfn.  Coefficient  Atom+Function         Bfn.  Coefficient  Atom+Function  
  ----- ------------  ---------------      ----- ------------  ---------------
    16      0.831522  2 O  px                17      0.763107  2 O  py         
    12     -0.744661  2 O  px                13     -0.683393  2 O  py         
     7     -0.266057  1 C  px                 8     -0.244166  1 C  py         
 
 Vector   16  Occ=0.000000D+00  E= 1.333589D+00  Symmetry=e
              MO Center= -4.1D-15,  4.4D-15,  4.9D-01, r^2= 9.2D-01
   Bfn.  Coefficient  Atom+Function         Bfn.  Coefficient  Atom+Function  
  ----- ------------  ---------------      ----- ------------  ---------------
    17     -0.831522  2 O  py                16      0.763107  2 O  px         
    13      0.744661  2 O  py                12     -0.683393  2 O  px         
     8      0.266057  1 C  py                 7     -0.244166  1 C  px         
 
 Vector   17  Occ=0.000000D+00  E= 1.391878D+00  Symmetry=a1
              MO Center=  5.2D-15, -3.7D-15,  8.4D-01, r^2= 7.5D-01
   Bfn.  Coefficient  Atom+Function         Bfn.  Coefficient  Atom+Function  
  ----- ------------  ---------------      ----- ------------  ---------------
    18      1.349851  2 O  pz                14     -0.927856  2 O  pz         
     2      0.590685  1 C  s                  5      0.243200  1 C  pz         
    15     -0.205254  2 O  s                 11     -0.200017  2 O  s          
 

 center of mass
 --------------
 x =   0.00000000 y =   0.00000000 z =  -0.01042179

 moments of inertia (a.u.)
 ------------------
          35.097044353855           0.000000000000           0.000000000000
           0.000000000000          35.097044353855           0.000000000000
           0.000000000000           0.000000000000           0.000000000000
 
     Multipole analysis of the density
     ---------------------------------
 
     L   x y z        total         alpha         beta         nuclear
     -   - - -        -----         -----         ----         -------
     0   0 0 0     -0.000000     -7.000000     -7.000000     14.000000
 
     1   1 0 0      0.000000      0.000000      0.000000      0.000000
     1   0 1 0      0.000000      0.000000      0.000000      0.000000
     1   0 0 1      0.039348      0.091392      0.091392     -0.143437
 
     2   2 0 0     -7.443912     -3.721956     -3.721956      0.000000
     2   1 1 0      0.000000      0.000000      0.000000      0.000000
     2   1 0 1      0.000000      0.000000      0.000000      0.000000
     2   0 2 0     -7.443912     -3.721956     -3.721956      0.000000
     2   0 1 1      0.000000      0.000000      0.000000      0.000000
     2   0 0 2     -9.288192    -13.420288    -13.420288     17.552385
 

 Parallel integral file used       1 records with       0 large values

 Line search: 
     step= 1.00 grad=-2.3D-02 hess= 5.6D-03 energy=   -111.780728 mode=downhill
 new step= 2.01                   predicted energy=   -111.786483

          --------
          Step   1
          --------
 
 
                         Geometry "geometry" -> "geometry"
                         ---------------------------------
 
 Output coordinates in angstroms (scale by  1.889725989 to convert to a.u.)
 
  No.       Tag          Charge          X              Y              Z
 ---- ---------------- ---------- -------------- -------------- --------------
    1 C                    6.0000     0.00000000     0.00000000    -0.65111746
    2 O                    8.0000     0.00000000     0.00000000     0.46923460
 
      Atomic Mass 
      ----------- 
 
      C                 12.000000
      O                 15.994910
 

 Effective nuclear repulsion energy (a.u.)      22.6718982342

            Nuclear Dipole moment (a.u.) 
            ----------------------------
        X                 Y               Z
 ---------------- ---------------- ----------------
     0.0000000000     0.0000000000    -0.2888029249
 
      Symmetry information
      --------------------
 
 Group name             C4v       
 Group number             18
 Group order               8
 No. of unique centers     2
 
      Symmetry unique atoms
 
     1    2
 
 
                                 NWChem DFT Module
                                 -----------------
 
 


 Summary of "ao basis" -> "ao basis" (cartesian)
 ------------------------------------------------------------------------------
       Tag                 Description            Shells   Functions and Types
 ---------------- ------------------------------  ------  ---------------------
 C                           3-21g                   5        9   3s2p
 O                           3-21g                   5        9   3s2p


      Symmetry analysis of basis
      --------------------------
 
        a1         10
        a2          0
        b1          0
        b2          0
        e           8
 
  Caching 1-el integrals 
 
            General Information
            -------------------
          SCF calculation type: DFT
          Wavefunction type:  closed shell.
          No. of atoms     :     2
          No. of electrons :    14
           Alpha electrons :     7
            Beta electrons :     7
          Charge           :     0
          Spin multiplicity:     1
          Use of symmetry is: on ; symmetry adaption is: on 
          Maximum number of iterations: 128
          AO basis - number of functions:    18
                     number of shells:    10
          Convergence on energy requested: 1.00D-06
          Convergence on density requested: 1.00D-05
          Convergence on gradient requested: 5.00D-04
 
              XC Information
              --------------
                        Slater Exchange Functional  1.000 local    
                      VWN V Correlation Functional  1.000 local    
 
             Grid Information
             ----------------
          Grid used for XC integration:  medium    
          Radial quadrature: Mura-Knowles        
          Angular quadrature: Lebedev. 
          Tag              B.-S. Rad. Rad. Pts. Rad. Cut. Ang. Pts.
          ---              ---------- --------- --------- ---------
          C                   0.70       49           5.0       434
          O                   0.60       49           5.0       434
          Grid pruning is: on 
          Number of quadrature shells:    98
          Spatial weights used:  Erf1
 
          Convergence Information
          -----------------------
          Convergence aids based upon iterative change in 
          total energy or number of iterations. 
          Levelshifting, if invoked, occurs when the 
          HOMO/LUMO gap drops below (HL_TOL): 1.00D-02
          DIIS, if invoked, will attempt to extrapolate 
          using up to (NFOCK): 10 stored Fock matrices.

                    Damping( 0%)  Levelshifting(0.5)       DIIS
                  --------------- ------------------- ---------------
          dE  on:    start            ASAP                start   
          dE off:    2 iters        128 iters           128 iters 

 
      Screening Tolerance Information
      -------------------------------
          Density screening/tol_rho: 1.00D-10
          AO Gaussian exp screening on grid/accAOfunc:  14
          CD Gaussian exp screening on grid/accCDfunc:  20
          XC Gaussian exp screening on grid/accXCfunc:  20
          Schwarz screening/accCoul: 1.00D-08


 Loading old vectors from job with title :



 
      Symmetry analysis of molecular orbitals - initial
      -------------------------------------------------
 
  Numbering of irreducible representations: 
 
     1 a1          2 a2          3 b1          4 b2          5 e       
 
  Orbital symmetries:
 
     1 a1          2 a1          3 a1          4 a1          5 e       
     6 e           7 a1          8 e           9 e          10 a1      
    11 e          12 e          13 a1         14 a1         15 e       
    16 e          17 a1      
 
   Time after variat. SCF:      0.3
   Time prior to 1st pass:      0.3

 #quartets = 1.539D+03 #integrals = 4.767D+03 #direct =  0.0% #cached =100.0%


 Integral file          = ./CO.aoints.0
 Record size in doubles =  65536        No. of integs per rec  =  43688
 Max. records in memory =      2        Max. records in file   =  49521
 No. of bits per label  =      8        No. of bits per value  =     64


 Grid_pts file          = ./CO.gridpts.0
 Record size in doubles =  12289        No. of grid_pts per rec  =   3070
 Max. records in memory =     17        Max. recs in file   =    264094


           Memory utilization after 1st SCF pass: 
           Heap Space remaining (MW):       61.52            61516438
          Stack Space remaining (MW):       61.86            61857508

   convergence    iter        energy       DeltaE   RMS-Dens  Diis-err    time
 ---------------- ----- ----------------- --------- --------- ---------  ------
 d= 0,ls=0.0,diis     1   -111.7758913581 -1.34D+02  1.00D-02  4.41D-02     0.4
 d= 0,ls=0.0,diis     2   -111.7781769415 -2.29D-03  6.55D-03  2.97D-02     0.4
 d= 0,ls=0.0,diis     3   -111.7769925568  1.18D-03  4.90D-03  3.84D-02     0.4
 d= 0,ls=0.0,diis     4   -111.7804231343 -3.43D-03  9.36D-04  9.33D-04     0.4
 d= 0,ls=0.0,diis     5   -111.7805261844 -1.03D-04  1.81D-05  2.14D-07     0.4
 d= 0,ls=0.0,diis     6   -111.7805262071 -2.27D-08  1.41D-06  4.99D-09     0.4


         Total DFT energy =     -111.780526207091
      One electron energy =     -197.609489608260
           Coulomb energy =       76.112212682951
    Exchange-Corr. energy =      -12.955147515949
 Nuclear repulsion energy =       22.671898234167

 Numeric. integr. density =       14.000000642600

     Total iterative time =      0.1s


 
                  Occupations of the irreducible representations
                  ----------------------------------------------
 
                     irrep           alpha         beta
                     --------     --------     --------
                     a1                5.0          5.0
                     a2                0.0          0.0
                     b1                0.0          0.0
                     b2                0.0          0.0
                     e                 2.0          2.0
 
 
                       DFT Final Molecular Orbital Analysis
                       ------------------------------------
 
 Vector    1  Occ=2.000000D+00  E=-1.862022D+01  Symmetry=a1
              MO Center= -6.3D-18, -8.8D-18,  4.7D-01, r^2= 1.6D-02
   Bfn.  Coefficient  Atom+Function         Bfn.  Coefficient  Atom+Function  
  ----- ------------  ---------------      ----- ------------  ---------------
    10      0.981508  2 O  s          
 
 Vector    2  Occ=2.000000D+00  E=-9.833826D+00  Symmetry=a1
              MO Center= -3.0D-19,  7.5D-19, -6.5D-01, r^2= 2.9D-02
   Bfn.  Coefficient  Atom+Function         Bfn.  Coefficient  Atom+Function  
  ----- ------------  ---------------      ----- ------------  ---------------
     1      0.983106  1 C  s          
 
 Vector    3  Occ=2.000000D+00  E=-1.104653D+00  Symmetry=a1
              MO Center= -4.2D-17, -2.0D-17,  1.1D-01, r^2= 4.1D-01
   Bfn.  Coefficient  Atom+Function         Bfn.  Coefficient  Atom+Function  
  ----- ------------  ---------------      ----- ------------  ---------------
    15      0.631074  2 O  s                 10     -0.214046  2 O  s          
    11      0.205438  2 O  s                  5      0.204125  1 C  pz         
    14     -0.187580  2 O  pz                18     -0.150800  2 O  pz         
 
 Vector    4  Occ=2.000000D+00  E=-4.880267D-01  Symmetry=a1
              MO Center=  1.8D-18, -1.3D-16,  5.1D-01, r^2= 7.3D-01
   Bfn.  Coefficient  Atom+Function         Bfn.  Coefficient  Atom+Function  
  ----- ------------  ---------------      ----- ------------  ---------------
    15      0.569275  2 O  s                 14      0.397199  2 O  pz         
    18      0.336015  2 O  pz                 6     -0.283203  1 C  s          
     2     -0.179106  1 C  s          
 
 Vector    5  Occ=2.000000D+00  E=-4.375212D-01  Symmetry=e
              MO Center=  9.0D-19,  5.1D-18,  1.6D-01, r^2= 8.1D-01
   Bfn.  Coefficient  Atom+Function         Bfn.  Coefficient  Atom+Function  
  ----- ------------  ---------------      ----- ------------  ---------------
    13      0.451224  2 O  py                17      0.436876  2 O  py         
     4      0.287317  1 C  py                 8      0.205255  1 C  py         
 
 Vector    6  Occ=2.000000D+00  E=-4.375212D-01  Symmetry=e
              MO Center=  3.4D-18, -5.9D-19,  1.6D-01, r^2= 8.1D-01
   Bfn.  Coefficient  Atom+Function         Bfn.  Coefficient  Atom+Function  
  ----- ------------  ---------------      ----- ------------  ---------------
    12      0.451224  2 O  px                16      0.436876  2 O  px         
     3      0.287317  1 C  px                 7      0.205255  1 C  px         
 
 Vector    7  Occ=2.000000D+00  E=-3.050312D-01  Symmetry=a1
              MO Center= -5.5D-17, -1.4D-16, -8.7D-01, r^2= 9.7D-01
   Bfn.  Coefficient  Atom+Function         Bfn.  Coefficient  Atom+Function  
  ----- ------------  ---------------      ----- ------------  ---------------
     6      0.819510  1 C  s                  5     -0.371190  1 C  pz         
    18      0.243119  2 O  pz                14      0.236248  2 O  pz         
     1     -0.159594  1 C  s          
 
 Vector    8  Occ=0.000000D+00  E=-5.487620D-02  Symmetry=e
              MO Center= -1.9D-18,  1.6D-16, -3.9D-01, r^2= 1.2D+00
   Bfn.  Coefficient  Atom+Function         Bfn.  Coefficient  Atom+Function  
  ----- ------------  ---------------      ----- ------------  ---------------
     8      0.620403  1 C  py                 4      0.498895  1 C  py         
    17     -0.478467  2 O  py                13     -0.361996  2 O  py         
 
 Vector    9  Occ=0.000000D+00  E=-5.487620D-02  Symmetry=e
              MO Center=  4.9D-17,  6.0D-19, -3.9D-01, r^2= 1.2D+00
   Bfn.  Coefficient  Atom+Function         Bfn.  Coefficient  Atom+Function  
  ----- ------------  ---------------      ----- ------------  ---------------
     7      0.620403  1 C  px                 3      0.498895  1 C  px         
    16     -0.478467  2 O  px                12     -0.361996  2 O  px         
 
 Vector   10  Occ=0.000000D+00  E= 2.919051D-01  Symmetry=a1
              MO Center=  2.6D-16, -2.2D-16, -5.9D-01, r^2= 2.1D+00
   Bfn.  Coefficient  Atom+Function         Bfn.  Coefficient  Atom+Function  
  ----- ------------  ---------------      ----- ------------  ---------------
    15     -1.699245  2 O  s                  9      1.632810  1 C  pz         
     6      1.422343  1 C  s                 18      0.649020  2 O  pz         
    14      0.164865  2 O  pz         
 
 Vector   11  Occ=0.000000D+00  E= 6.205933D-01  Symmetry=e
              MO Center= -1.3D-16,  5.6D-17, -7.1D-01, r^2= 1.5D+00
   Bfn.  Coefficient  Atom+Function         Bfn.  Coefficient  Atom+Function  
  ----- ------------  ---------------      ----- ------------  ---------------
     7     -0.993776  1 C  px                 3      0.942791  1 C  px         
     8      0.429289  1 C  py                 4     -0.407264  1 C  py         
 
 Vector   12  Occ=0.000000D+00  E= 6.205933D-01  Symmetry=e
              MO Center=  1.7D-16,  3.9D-16, -7.1D-01, r^2= 1.5D+00
   Bfn.  Coefficient  Atom+Function         Bfn.  Coefficient  Atom+Function  
  ----- ------------  ---------------      ----- ------------  ---------------
     8     -0.993776  1 C  py                 4      0.942791  1 C  py         
     7     -0.429289  1 C  px                 3      0.407264  1 C  px         
 
 Vector   13  Occ=0.000000D+00  E= 7.816355D-01  Symmetry=a1
              MO Center=  1.6D-16, -7.7D-18, -7.8D-01, r^2= 1.2D+00
   Bfn.  Coefficient  Atom+Function         Bfn.  Coefficient  Atom+Function  
  ----- ------------  ---------------      ----- ------------  ---------------
     5      1.193042  1 C  pz                 6      0.719530  1 C  s          
     9     -0.605477  1 C  pz                18      0.576214  2 O  pz         
    15     -0.305736  2 O  s                 14      0.229338  2 O  pz         
     2     -0.198210  1 C  s          
 
 Vector   14  Occ=0.000000D+00  E= 1.037944D+00  Symmetry=a1
              MO Center= -1.4D-16, -2.2D-16, -4.2D-01, r^2= 1.0D+00
   Bfn.  Coefficient  Atom+Function         Bfn.  Coefficient  Atom+Function  
  ----- ------------  ---------------      ----- ------------  ---------------
     2      1.462679  1 C  s                  6     -1.220756  1 C  s          
    14      0.447611  2 O  pz                 5      0.264388  1 C  pz         
     9     -0.160125  1 C  pz         
 
 Vector   15  Occ=0.000000D+00  E= 1.338980D+00  Symmetry=e
              MO Center= -1.9D-15,  1.1D-15,  4.6D-01, r^2= 9.3D-01
   Bfn.  Coefficient  Atom+Function         Bfn.  Coefficient  Atom+Function  
  ----- ------------  ---------------      ----- ------------  ---------------
    16      1.015760  2 O  px                12     -0.887555  2 O  px         
    17     -0.553815  2 O  py                13      0.483915  2 O  py         
     7     -0.348829  1 C  px                 8      0.190189  1 C  py         
 
 Vector   16  Occ=0.000000D+00  E= 1.338980D+00  Symmetry=e
              MO Center= -1.9D-15, -3.5D-15,  4.6D-01, r^2= 9.3D-01
   Bfn.  Coefficient  Atom+Function         Bfn.  Coefficient  Atom+Function  
  ----- ------------  ---------------      ----- ------------  ---------------
    17      1.015760  2 O  py                13     -0.887555  2 O  py         
    16      0.553815  2 O  px                12     -0.483915  2 O  px         
     8     -0.348829  1 C  py                 7     -0.190189  1 C  px         
 
 Vector   17  Occ=0.000000D+00  E= 1.356483D+00  Symmetry=a1
              MO Center=  3.6D-15,  2.6D-15,  8.0D-01, r^2= 7.7D-01
   Bfn.  Coefficient  Atom+Function         Bfn.  Coefficient  Atom+Function  
  ----- ------------  ---------------      ----- ------------  ---------------
    18      1.395425  2 O  pz                14     -0.919527  2 O  pz         
     2      0.655932  1 C  s                 15     -0.334118  2 O  s          
     9      0.194765  1 C  pz                 5      0.176674  1 C  pz         
     6      0.177164  1 C  s                 11     -0.157989  2 O  s          
 

 center of mass
 --------------
 x =   0.00000000 y =   0.00000000 z =  -0.02079375

 moments of inertia (a.u.)
 ------------------
          30.731989693693           0.000000000000           0.000000000000
           0.000000000000          30.731989693693           0.000000000000
           0.000000000000           0.000000000000           0.000000000000
 
     Multipole analysis of the density
     ---------------------------------
 
     L   x y z        total         alpha         beta         nuclear
     -   - - -        -----         -----         ----         -------
     0   0 0 0     -0.000000     -7.000000     -7.000000     14.000000
 
     1   1 0 0      0.000000      0.000000      0.000000      0.000000
     1   0 1 0      0.000000      0.000000      0.000000      0.000000
     1   0 0 1      0.111431      0.200117      0.200117     -0.288803
 
     2   2 0 0     -7.322700     -3.661350     -3.661350      0.000000
     2   1 1 0      0.000000      0.000000      0.000000      0.000000
     2   1 0 1      0.000000      0.000000      0.000000      0.000000
     2   0 2 0     -7.322700     -3.661350     -3.661350      0.000000
     2   0 1 1      0.000000      0.000000      0.000000      0.000000
     2   0 0 2     -9.251641    -12.312844    -12.312844     15.374048
 

 Parallel integral file used       1 records with       0 large values

 
            General Information
            -------------------
          SCF calculation type: DFT
          Wavefunction type:  closed shell.
          No. of atoms     :     2
          No. of electrons :    14
           Alpha electrons :     7
            Beta electrons :     7
          Charge           :     0
          Spin multiplicity:     1
          Use of symmetry is: on ; symmetry adaption is: on 
          Maximum number of iterations: 128
          AO basis - number of functions:    18
                     number of shells:    10
          Convergence on energy requested: 1.00D-06
          Convergence on density requested: 1.00D-05
          Convergence on gradient requested: 5.00D-04
 
              XC Information
              --------------
                        Slater Exchange Functional  1.000 local    
                      VWN V Correlation Functional  1.000 local    
 
             Grid Information
             ----------------
          Grid used for XC integration:  medium    
          Radial quadrature: Mura-Knowles        
          Angular quadrature: Lebedev. 
          Tag              B.-S. Rad. Rad. Pts. Rad. Cut. Ang. Pts.
          ---              ---------- --------- --------- ---------
          C                   0.70       49           5.0       434
          O                   0.60       49           5.0       434
          Grid pruning is: on 
          Number of quadrature shells:    98
          Spatial weights used:  Erf1
 
          Convergence Information
          -----------------------
          Convergence aids based upon iterative change in 
          total energy or number of iterations. 
          Levelshifting, if invoked, occurs when the 
          HOMO/LUMO gap drops below (HL_TOL): 1.00D-02
          DIIS, if invoked, will attempt to extrapolate 
          using up to (NFOCK): 10 stored Fock matrices.

                    Damping( 0%)  Levelshifting(0.5)       DIIS
                  --------------- ------------------- ---------------
          dE  on:    start            ASAP                start   
          dE off:    2 iters        128 iters           128 iters 

 
      Screening Tolerance Information
      -------------------------------
          Density screening/tol_rho: 1.00D-10
          AO Gaussian exp screening on grid/accAOfunc:  14
          CD Gaussian exp screening on grid/accCDfunc:  20
          XC Gaussian exp screening on grid/accXCfunc:  20
          Schwarz screening/accCoul: 1.00D-08

 
 
                            NWChem DFT Gradient Module
                            --------------------------
 
 

  charge          =   0.00
  wavefunction    = closed shell

  Using symmetry


                         DFT ENERGY GRADIENTS

    atom               coordinates                        gradient
                 x          y          z           x          y          z
   1 C       0.000000   0.000000  -1.230434    0.000000   0.000000   0.087695
   2 O       0.000000   0.000000   0.886725    0.000000   0.000000  -0.087695
 
                 ----------------------------------------
                 |  Time  |  1-e(secs)   |  2-e(secs)   |
                 ----------------------------------------
                 |  CPU   |       0.00   |       0.04   |
                 ----------------------------------------
                 |  WALL  |       0.00   |       0.04   |
                 ----------------------------------------

  Step       Energy      Delta E   Gmax     Grms     Xrms     Xmax   Walltime
  ---- ---------------- -------- -------- -------- -------- -------- --------
@    1    -111.78052621 -1.7D-02  0.08769  0.08769  0.08337  0.14440      0.7
                                                                    



                                Z-matrix (autoz)
                                -------- 

 Units are Angstrom for bonds and degrees for angles
 
      Type          Name      I     J     K     L     M      Value     Gradient
      ----------- --------  ----- ----- ----- ----- ----- ---------- ----------
    1 Stretch                  1     2                       1.12035   -0.08769
 
 
                                 NWChem DFT Module
                                 -----------------
 
 


 Summary of "ao basis" -> "ao basis" (cartesian)
 ------------------------------------------------------------------------------
       Tag                 Description            Shells   Functions and Types
 ---------------- ------------------------------  ------  ---------------------
 C                           3-21g                   5        9   3s2p
 O                           3-21g                   5        9   3s2p


      Symmetry analysis of basis
      --------------------------
 
        a1         10
        a2          0
        b1          0
        b2          0
        e           8
 
  Caching 1-el integrals 
 
            General Information
            -------------------
          SCF calculation type: DFT
          Wavefunction type:  closed shell.
          No. of atoms     :     2
          No. of electrons :    14
           Alpha electrons :     7
            Beta electrons :     7
          Charge           :     0
          Spin multiplicity:     1
          Use of symmetry is: on ; symmetry adaption is: on 
          Maximum number of iterations: 128
          AO basis - number of functions:    18
                     number of shells:    10
          Convergence on energy requested: 1.00D-06
          Convergence on density requested: 1.00D-05
          Convergence on gradient requested: 5.00D-04
 
              XC Information
              --------------
                        Slater Exchange Functional  1.000 local    
                      VWN V Correlation Functional  1.000 local    
 
             Grid Information
             ----------------
          Grid used for XC integration:  medium    
          Radial quadrature: Mura-Knowles        
          Angular quadrature: Lebedev. 
          Tag              B.-S. Rad. Rad. Pts. Rad. Cut. Ang. Pts.
          ---              ---------- --------- --------- ---------
          C                   0.70       49           5.0       434
          O                   0.60       49           5.0       434
          Grid pruning is: on 
          Number of quadrature shells:    98
          Spatial weights used:  Erf1
 
          Convergence Information
          -----------------------
          Convergence aids based upon iterative change in 
          total energy or number of iterations. 
          Levelshifting, if invoked, occurs when the 
          HOMO/LUMO gap drops below (HL_TOL): 1.00D-02
          DIIS, if invoked, will attempt to extrapolate 
          using up to (NFOCK): 10 stored Fock matrices.

                    Damping( 0%)  Levelshifting(0.5)       DIIS
                  --------------- ------------------- ---------------
          dE  on:    start            ASAP                start   
          dE off:    2 iters        128 iters           128 iters 

 
      Screening Tolerance Information
      -------------------------------
          Density screening/tol_rho: 1.00D-10
          AO Gaussian exp screening on grid/accAOfunc:  14
          CD Gaussian exp screening on grid/accCDfunc:  20
          XC Gaussian exp screening on grid/accXCfunc:  20
          Schwarz screening/accCoul: 1.00D-08


 Loading old vectors from job with title :



 
      Symmetry analysis of molecular orbitals - initial
      -------------------------------------------------
 
  Numbering of irreducible representations: 
 
     1 a1          2 a2          3 b1          4 b2          5 e       
 
  Orbital symmetries:
 
     1 a1          2 a1          3 a1          4 a1          5 e       
     6 e           7 a1          8 e           9 e          10 a1      
    11 e          12 e          13 a1         14 a1         15 e       
    16 e          17 a1      
 
   Time after variat. SCF:      0.5
   Time prior to 1st pass:      0.5

 #quartets = 1.536D+03 #integrals = 4.735D+03 #direct =  0.0% #cached =100.0%


 Integral file          = ./CO.aoints.0
 Record size in doubles =  65536        No. of integs per rec  =  43688
 Max. records in memory =      2        Max. records in file   =  49521
 No. of bits per label  =      8        No. of bits per value  =     64


 Grid_pts file          = ./CO.gridpts.0
 Record size in doubles =  12289        No. of grid_pts per rec  =   3070
 Max. records in memory =     17        Max. recs in file   =    264094


           Memory utilization after 1st SCF pass: 
           Heap Space remaining (MW):       61.52            61516438
          Stack Space remaining (MW):       61.86            61857508

   convergence    iter        energy       DeltaE   RMS-Dens  Diis-err    time
 ---------------- ----- ----------------- --------- --------- ---------  ------
 d= 0,ls=0.0,diis     1   -111.7804548587 -1.33D+02  7.38D-03  2.38D-02     0.6
 d= 0,ls=0.0,diis     2   -111.7813269505 -8.72D-04  5.58D-03  1.96D-02     0.6
 d= 0,ls=0.0,diis     3   -111.7802786575  1.05D-03  4.15D-03  2.77D-02     0.6
 d= 0,ls=0.0,diis     4   -111.7828600697 -2.58D-03  6.77D-04  6.01D-04     0.6
 d= 0,ls=0.0,diis     5   -111.7829266772 -6.66D-05  1.40D-05  5.02D-07     0.6
 d= 0,ls=0.0,diis     6   -111.7829267241 -4.70D-08  8.71D-07  1.33D-09     0.6


         Total DFT energy =     -111.782926724109
      One electron energy =     -195.633654215463
           Coulomb energy =       75.135666426263
    Exchange-Corr. energy =      -12.901430604983
 Nuclear repulsion energy =       21.616491670074

 Numeric. integr. density =       14.000000075401

     Total iterative time =      0.1s


 
                  Occupations of the irreducible representations
                  ----------------------------------------------
 
                     irrep           alpha         beta
                     --------     --------     --------
                     a1                5.0          5.0
                     a2                0.0          0.0
                     b1                0.0          0.0
                     b2                0.0          0.0
                     e                 2.0          2.0
 
 
                       DFT Final Molecular Orbital Analysis
                       ------------------------------------
 
 Vector    1  Occ=2.000000D+00  E=-1.862116D+01  Symmetry=a1
              MO Center=  0.0D+00,  0.0D+00,  5.0D-01, r^2= 1.6D-02
   Bfn.  Coefficient  Atom+Function         Bfn.  Coefficient  Atom+Function  
  ----- ------------  ---------------      ----- ------------  ---------------
    10      0.981455  2 O  s          
 
 Vector    2  Occ=2.000000D+00  E=-9.846981D+00  Symmetry=a1
              MO Center= -2.6D-18,  2.0D-19, -6.8D-01, r^2= 2.9D-02
   Bfn.  Coefficient  Atom+Function         Bfn.  Coefficient  Atom+Function  
  ----- ------------  ---------------      ----- ------------  ---------------
     1      0.983136  1 C  s          
 
 Vector    3  Occ=2.000000D+00  E=-1.073094D+00  Symmetry=a1
              MO Center=  1.5D-34, -6.6D-34,  1.4D-01, r^2= 4.4D-01
   Bfn.  Coefficient  Atom+Function         Bfn.  Coefficient  Atom+Function  
  ----- ------------  ---------------      ----- ------------  ---------------
    15      0.642255  2 O  s                 10     -0.214421  2 O  s          
    11      0.205070  2 O  s                  5      0.189558  1 C  pz         
    14     -0.175990  2 O  pz                18     -0.153578  2 O  pz         
 
 Vector    4  Occ=2.000000D+00  E=-4.898062D-01  Symmetry=a1
              MO Center= -2.7D-17,  4.9D-17,  4.5D-01, r^2= 8.5D-01
   Bfn.  Coefficient  Atom+Function         Bfn.  Coefficient  Atom+Function  
  ----- ------------  ---------------      ----- ------------  ---------------
    15      0.568001  2 O  s                 14      0.376147  2 O  pz         
     6     -0.339717  1 C  s                 18      0.322700  2 O  pz         
     2     -0.188197  1 C  s          
 
 Vector    5  Occ=2.000000D+00  E=-4.194019D-01  Symmetry=e
              MO Center=  2.6D-18, -1.3D-18,  1.7D-01, r^2= 8.4D-01
   Bfn.  Coefficient  Atom+Function         Bfn.  Coefficient  Atom+Function  
  ----- ------------  ---------------      ----- ------------  ---------------
    12      0.407480  2 O  px                16      0.400653  2 O  px         
     3      0.253789  1 C  px                13     -0.207178  2 O  py         
    17     -0.203707  2 O  py                 7      0.197317  1 C  px         
 
 Vector    6  Occ=2.000000D+00  E=-4.194019D-01  Symmetry=e
              MO Center=  5.3D-18,  1.0D-17,  1.7D-01, r^2= 8.4D-01
   Bfn.  Coefficient  Atom+Function         Bfn.  Coefficient  Atom+Function  
  ----- ------------  ---------------      ----- ------------  ---------------
    13      0.407480  2 O  py                17      0.400653  2 O  py         
     4      0.253789  1 C  py                12      0.207178  2 O  px         
    16      0.203707  2 O  px                 8      0.197317  1 C  py         
 
 Vector    7  Occ=2.000000D+00  E=-3.101404D-01  Symmetry=a1
              MO Center= -9.6D-17,  3.7D-17, -8.2D-01, r^2= 1.1D+00
   Bfn.  Coefficient  Atom+Function         Bfn.  Coefficient  Atom+Function  
  ----- ------------  ---------------      ----- ------------  ---------------
     6      0.786394  1 C  s                  5     -0.368954  1 C  pz         
    18      0.273822  2 O  pz                14      0.260013  2 O  pz         
     1     -0.155779  1 C  s          
 
 Vector    8  Occ=0.000000D+00  E=-7.543111D-02  Symmetry=e
              MO Center=  3.9D-17, -8.7D-17, -3.9D-01, r^2= 1.2D+00
   Bfn.  Coefficient  Atom+Function         Bfn.  Coefficient  Atom+Function  
  ----- ------------  ---------------      ----- ------------  ---------------
     8      0.544424  1 C  py                 4      0.460055  1 C  py         
    17     -0.416874  2 O  py                13     -0.326774  2 O  py         
     7     -0.242503  1 C  px                 3     -0.204923  1 C  px         
    16      0.185689  2 O  px         
 
 Vector    9  Occ=0.000000D+00  E=-7.543111D-02  Symmetry=e
              MO Center=  2.1D-17,  9.1D-18, -3.9D-01, r^2= 1.2D+00
   Bfn.  Coefficient  Atom+Function         Bfn.  Coefficient  Atom+Function  
  ----- ------------  ---------------      ----- ------------  ---------------
     7      0.544424  1 C  px                 3      0.460055  1 C  px         
    16     -0.416874  2 O  px                12     -0.326774  2 O  px         
     8      0.242503  1 C  py                 4      0.204923  1 C  py         
    17     -0.185689  2 O  py         
 
 Vector   10  Occ=0.000000D+00  E= 2.738769D-01  Symmetry=a1
              MO Center= -2.1D-18, -3.9D-19, -5.7D-01, r^2= 2.0D+00
   Bfn.  Coefficient  Atom+Function         Bfn.  Coefficient  Atom+Function  
  ----- ------------  ---------------      ----- ------------  ---------------
    15     -1.562427  2 O  s                  9      1.536680  1 C  pz         
     6      1.306311  1 C  s                 18      0.694887  2 O  pz         
    14      0.216734  2 O  pz                 5      0.213612  1 C  pz         
 
 Vector   11  Occ=0.000000D+00  E= 6.223187D-01  Symmetry=e
              MO Center=  2.7D-17,  1.3D-16, -7.4D-01, r^2= 1.5D+00
   Bfn.  Coefficient  Atom+Function         Bfn.  Coefficient  Atom+Function  
  ----- ------------  ---------------      ----- ------------  ---------------
     8     -1.062016  1 C  py                 4      1.005498  1 C  py         
     7     -0.221610  1 C  px                 3      0.209816  1 C  px         
 
 Vector   12  Occ=0.000000D+00  E= 6.223187D-01  Symmetry=e
              MO Center= -1.8D-16,  3.7D-17, -7.4D-01, r^2= 1.5D+00
   Bfn.  Coefficient  Atom+Function         Bfn.  Coefficient  Atom+Function  
  ----- ------------  ---------------      ----- ------------  ---------------
     7     -1.062016  1 C  px                 3      1.005498  1 C  px         
     8      0.221610  1 C  py                 4     -0.209816  1 C  py         
 
 Vector   13  Occ=0.000000D+00  E= 7.249153D-01  Symmetry=a1
              MO Center= -1.3D-16,  8.2D-17, -6.9D-01, r^2= 1.2D+00
   Bfn.  Coefficient  Atom+Function         Bfn.  Coefficient  Atom+Function  
  ----- ------------  ---------------      ----- ------------  ---------------
     5      1.171645  1 C  pz                 9     -0.792032  1 C  pz         
    18      0.390819  2 O  pz                14      0.303064  2 O  pz         
     6      0.288926  1 C  s          
 
 Vector   14  Occ=0.000000D+00  E= 9.969608D-01  Symmetry=a1
              MO Center=  2.7D-16, -1.5D-16, -5.9D-01, r^2= 1.2D+00
   Bfn.  Coefficient  Atom+Function         Bfn.  Coefficient  Atom+Function  
  ----- ------------  ---------------      ----- ------------  ---------------
     2      1.471934  1 C  s                  6     -1.427641  1 C  s          
    14      0.362509  2 O  pz                15      0.308481  2 O  s          
    18     -0.170618  2 O  pz         
 
 Vector   15  Occ=0.000000D+00  E= 1.334962D+00  Symmetry=e
              MO Center= -5.8D-18,  6.1D-17,  4.8D-01, r^2= 9.2D-01
   Bfn.  Coefficient  Atom+Function         Bfn.  Coefficient  Atom+Function  
  ----- ------------  ---------------      ----- ------------  ---------------
[...]
  ----- ------------  ---------------      ----- ------------  ---------------
     8      0.565973  1 C  py                 4      0.471281  1 C  py         
    17     -0.434447  2 O  py                13     -0.336928  2 O  py         
     7      0.208714  1 C  px                 3      0.173794  1 C  px         
    16     -0.160211  2 O  px         
 
 Vector    9  Occ=0.000000D+00  E=-6.918115D-02  Symmetry=e
              MO Center=  4.1D-18, -1.5D-18, -3.9D-01, r^2= 1.2D+00
   Bfn.  Coefficient  Atom+Function         Bfn.  Coefficient  Atom+Function  
  ----- ------------  ---------------      ----- ------------  ---------------
     7      0.565973  1 C  px                 3      0.471281  1 C  px         
    16     -0.434447  2 O  px                12     -0.336928  2 O  px         
     8     -0.208714  1 C  py                 4     -0.173794  1 C  py         
    17      0.160211  2 O  py         
 
 Vector   10  Occ=0.000000D+00  E= 2.803762D-01  Symmetry=a1
              MO Center=  1.1D-18,  2.7D-18, -5.8D-01, r^2= 2.0D+00
   Bfn.  Coefficient  Atom+Function         Bfn.  Coefficient  Atom+Function  
  ----- ------------  ---------------      ----- ------------  ---------------
    15     -1.608666  2 O  s                  9      1.570908  1 C  pz         
     6      1.345754  1 C  s                 18      0.682310  2 O  pz         
    14      0.199935  2 O  pz                 5      0.191648  1 C  pz         
 
 Vector   11  Occ=0.000000D+00  E= 6.218369D-01  Symmetry=e
              MO Center=  1.8D-16,  2.3D-16, -7.3D-01, r^2= 1.5D+00
   Bfn.  Coefficient  Atom+Function         Bfn.  Coefficient  Atom+Function  
  ----- ------------  ---------------      ----- ------------  ---------------
     8     -0.861810  1 C  py                 4      0.816109  1 C  py         
     7     -0.658434  1 C  px                 3      0.623518  1 C  px         
 
 Vector   12  Occ=0.000000D+00  E= 6.218369D-01  Symmetry=e
              MO Center= -2.1D-16,  1.6D-16, -7.3D-01, r^2= 1.5D+00
   Bfn.  Coefficient  Atom+Function         Bfn.  Coefficient  Atom+Function  
  ----- ------------  ---------------      ----- ------------  ---------------
     7     -0.861810  1 C  px                 3      0.816109  1 C  px         
     8      0.658434  1 C  py                 4     -0.623518  1 C  py         
 
 Vector   13  Occ=0.000000D+00  E= 7.433737D-01  Symmetry=a1
              MO Center= -5.0D-17, -1.4D-16, -7.1D-01, r^2= 1.2D+00
   Bfn.  Coefficient  Atom+Function         Bfn.  Coefficient  Atom+Function  
  ----- ------------  ---------------      ----- ------------  ---------------
     5      1.184654  1 C  pz                 9     -0.731857  1 C  pz         
    18      0.452277  2 O  pz                 6      0.417498  1 C  s          
    14      0.287807  2 O  pz         
 
 Vector   14  Occ=0.000000D+00  E= 1.006274D+00  Symmetry=a1
              MO Center= -1.5D-17, -3.2D-16, -5.4D-01, r^2= 1.2D+00
   Bfn.  Coefficient  Atom+Function         Bfn.  Coefficient  Atom+Function  
  ----- ------------  ---------------      ----- ------------  ---------------
     2      1.471318  1 C  s                  6     -1.379689  1 C  s          
    14      0.388887  2 O  pz                15      0.271811  2 O  s          
 
 Vector   15  Occ=0.000000D+00  E= 1.336135D+00  Symmetry=e
              MO Center= -3.4D-16, -1.6D-15,  4.8D-01, r^2= 9.2D-01
   Bfn.  Coefficient  Atom+Function         Bfn.  Coefficient  Atom+Function  
  ----- ------------  ---------------      ----- ------------  ---------------
    17      1.117735  2 O  py                13     -0.988879  2 O  py         
     8     -0.370258  1 C  py                16      0.236803  2 O  px         
    12     -0.209504  2 O  px         
 
 Vector   16  Occ=0.000000D+00  E= 1.336135D+00  Symmetry=e
              MO Center=  5.3D-15, -1.1D-15,  4.8D-01, r^2= 9.2D-01
   Bfn.  Coefficient  Atom+Function         Bfn.  Coefficient  Atom+Function  
  ----- ------------  ---------------      ----- ------------  ---------------
    16      1.117735  2 O  px                12     -0.988879  2 O  px         
     7     -0.370258  1 C  px                17     -0.236803  2 O  py         
    13      0.209504  2 O  py         
 
 Vector   17  Occ=0.000000D+00  E= 1.373645D+00  Symmetry=a1
              MO Center= -4.9D-15,  2.8D-15,  8.2D-01, r^2= 7.6D-01
   Bfn.  Coefficient  Atom+Function         Bfn.  Coefficient  Atom+Function  
  ----- ------------  ---------------      ----- ------------  ---------------
    18      1.376294  2 O  pz                14     -0.922572  2 O  pz         
     2      0.625677  1 C  s                 15     -0.271777  2 O  s          
     5      0.214709  1 C  pz                11     -0.179332  2 O  s          
     9      0.169001  1 C  pz                 6      0.158411  1 C  s          
 

 center of mass
 --------------
 x =   0.00000000 y =   0.00000000 z =  -0.01575955

 moments of inertia (a.u.)
 ------------------
          32.814451569365           0.000000000000           0.000000000000
           0.000000000000          32.814451569365           0.000000000000
           0.000000000000           0.000000000000           0.000000000000
 
     Multipole analysis of the density
     ---------------------------------
 
     L   x y z        total         alpha         beta         nuclear
     -   - - -        -----         -----         ----         -------
     0   0 0 0     -0.000000     -7.000000     -7.000000     14.000000
 
     1   1 0 0      0.000000      0.000000      0.000000      0.000000
     1   0 1 0      0.000000      0.000000      0.000000      0.000000
     1   0 0 1      0.076084      0.147166      0.147166     -0.218247
 
     2   2 0 0     -7.383584     -3.691792     -3.691792      0.000000
     2   1 1 0      0.000000      0.000000      0.000000      0.000000
     2   1 0 1      0.000000      0.000000      0.000000      0.000000
     2   0 2 0     -7.383584     -3.691792     -3.691792      0.000000
     2   0 1 1      0.000000      0.000000      0.000000      0.000000
     2   0 0 2     -9.274278    -12.843572    -12.843572     16.412866
 

 Parallel integral file used       1 records with       0 large values

 Line search: 
     step= 1.00 grad=-8.1D-08 hess= 4.9D-08 energy=   -111.783485 mode=accept  
 new step= 1.00                   predicted energy=   -111.783485

          --------
          Step   3
          --------
 
 
                         Geometry "geometry" -> "geometry"
                         ---------------------------------
 
 Output coordinates in angstroms (scale by  1.889725989 to convert to a.u.)
 
  No.       Tag          Charge          X              Y              Z
 ---- ---------------- ---------- -------------- -------------- --------------
    1 C                    6.0000     0.00000000     0.00000000    -0.66978572
    2 O                    8.0000     0.00000000     0.00000000     0.48790287
 
      Atomic Mass 
      ----------- 
 
      C                 12.000000
      O                 15.994910
 

 Effective nuclear repulsion energy (a.u.)      21.9407085157

            Nuclear Dipole moment (a.u.) 
            ----------------------------
        X                 Y               Z
 ---------------- ---------------- ----------------
     0.0000000000     0.0000000000    -0.2182471149
 
      Symmetry information
      --------------------
 
 Group name             C4v       
 Group number             18
 Group order               8
 No. of unique centers     2
 
      Symmetry unique atoms
 
     1    2
 
 
                                 NWChem DFT Module
                                 -----------------
 
 


 Summary of "ao basis" -> "ao basis" (cartesian)
 ------------------------------------------------------------------------------
       Tag                 Description            Shells   Functions and Types
 ---------------- ------------------------------  ------  ---------------------
 C                           3-21g                   5        9   3s2p
 O                           3-21g                   5        9   3s2p


      Symmetry analysis of basis
      --------------------------
 
        a1         10
        a2          0
        b1          0
        b2          0
        e           8
 

  The DFT is already converged 

         Total DFT energy =   -111.783485154896

 
            General Information
            -------------------
          SCF calculation type: DFT
          Wavefunction type:  closed shell.
          No. of atoms     :     2
          No. of electrons :    14
           Alpha electrons :     7
            Beta electrons :     7
          Charge           :     0
          Spin multiplicity:     1
          Use of symmetry is: on ; symmetry adaption is: on 
          Maximum number of iterations: 128
          AO basis - number of functions:    18
                     number of shells:    10
          Convergence on energy requested: 1.00D-06
          Convergence on density requested: 1.00D-05
          Convergence on gradient requested: 5.00D-04
 
              XC Information
              --------------
                        Slater Exchange Functional  1.000 local    
                      VWN V Correlation Functional  1.000 local    
 
             Grid Information
             ----------------
          Grid used for XC integration:  medium    
          Radial quadrature: Mura-Knowles        
          Angular quadrature: Lebedev. 
          Tag              B.-S. Rad. Rad. Pts. Rad. Cut. Ang. Pts.
          ---              ---------- --------- --------- ---------
          C                   0.70       49           5.0       434
          O                   0.60       49           5.0       434
          Grid pruning is: on 
          Number of quadrature shells:    98
          Spatial weights used:  Erf1
 
          Convergence Information
          -----------------------
          Convergence aids based upon iterative change in 
          total energy or number of iterations. 
          Levelshifting, if invoked, occurs when the 
          HOMO/LUMO gap drops below (HL_TOL): 1.00D-02
          DIIS, if invoked, will attempt to extrapolate 
          using up to (NFOCK): 10 stored Fock matrices.

                    Damping( 0%)  Levelshifting(0.5)       DIIS
                  --------------- ------------------- ---------------
          dE  on:    start            ASAP                start   
          dE off:    2 iters        128 iters           128 iters 

 
      Screening Tolerance Information
      -------------------------------
          Density screening/tol_rho: 1.00D-10
          AO Gaussian exp screening on grid/accAOfunc:  14
          CD Gaussian exp screening on grid/accCDfunc:  20
          XC Gaussian exp screening on grid/accXCfunc:  20
          Schwarz screening/accCoul: 1.00D-08

 
 
                            NWChem DFT Gradient Module
                            --------------------------
 
 

  charge          =   0.00
  wavefunction    = closed shell

  Using symmetry


                         DFT ENERGY GRADIENTS

    atom               coordinates                        gradient
                 x          y          z           x          y          z
   1 C       0.000000   0.000000  -1.265711    0.000000   0.000000   0.000037
   2 O       0.000000   0.000000   0.922003    0.000000   0.000000  -0.000037
 
                 ----------------------------------------
                 |  Time  |  1-e(secs)   |  2-e(secs)   |
                 ----------------------------------------
                 |  CPU   |       0.00   |       0.04   |
                 ----------------------------------------
                 |  WALL  |       0.00   |       0.04   |
                 ----------------------------------------

  Step       Energy      Delta E   Gmax     Grms     Xrms     Xmax   Walltime
  ---- ---------------- -------- -------- -------- -------- -------- --------
@    3    -111.78348515 -3.1D-08  0.00004  0.00004  0.00007  0.00013      1.2
                                     ok       ok       ok       ok  



                                Z-matrix (autoz)
                                -------- 

 Units are Angstrom for bonds and degrees for angles
 
      Type          Name      I     J     K     L     M      Value     Gradient
      ----------- --------  ----- ----- ----- ----- ----- ---------- ----------
    1 Stretch                  1     2                       1.15769   -0.00004
 

      ----------------------
      Optimization converged
      ----------------------


  Step       Energy      Delta E   Gmax     Grms     Xrms     Xmax   Walltime
  ---- ---------------- -------- -------- -------- -------- -------- --------
@    3    -111.78348515 -3.1D-08  0.00004  0.00004  0.00007  0.00013      1.2
                                     ok       ok       ok       ok  



                                Z-matrix (autoz)
                                -------- 

 Units are Angstrom for bonds and degrees for angles
 
      Type          Name      I     J     K     L     M      Value     Gradient
      ----------- --------  ----- ----- ----- ----- ----- ---------- ----------
    1 Stretch                  1     2                       1.15769   -0.00004
 
 
 
                         Geometry "geometry" -> "geometry"
                         ---------------------------------
 
 Output coordinates in angstroms (scale by  1.889725989 to convert to a.u.)
 
  No.       Tag          Charge          X              Y              Z
 ---- ---------------- ---------- -------------- -------------- --------------
    1 C                    6.0000     0.00000000     0.00000000    -0.66978572
    2 O                    8.0000     0.00000000     0.00000000     0.48790287
 
      Atomic Mass 
      ----------- 
 
      C                 12.000000
      O                 15.994910
 

 Effective nuclear repulsion energy (a.u.)      21.9407085157

            Nuclear Dipole moment (a.u.) 
            ----------------------------
        X                 Y               Z
 ---------------- ---------------- ----------------
     0.0000000000     0.0000000000    -0.2182471149
 
      Symmetry information
      --------------------
 
 Group name             C4v       
 Group number             18
 Group order               8
 No. of unique centers     2
 
      Symmetry unique atoms
 
     1    2
 
 
                Final and change from initial internal coordinates
                --------------------------------------------------
 


                                Z-matrix (autoz)
                                -------- 

 Units are Angstrom for bonds and degrees for angles
 
      Type          Name      I     J     K     L     M      Value       Change
      ----------- --------  ----- ----- ----- ----- ----- ---------- ----------
    1 Stretch                  1     2                       1.15769   -0.11549
 
 ==============================================================================
                                internuclear distances
 ------------------------------------------------------------------------------
       center one      |      center two      | atomic units |  angstroms
 ------------------------------------------------------------------------------
    2 O                |   1 C                |     2.18771  |     1.15769
 ------------------------------------------------------------------------------
                         number of included internuclear distances:          1
 ==============================================================================




 Task  times  cpu:        0.8s     wall:        1.1s
 
 
                                NWChem Input Module
                                -------------------
 
 
 
  Limits (a.u.) specified for the density plot:
  ---------------------------------------------
 
        From        To      # of spacings
X    -9.44863     9.44863        60
Y    -9.44863     9.44863        60
Z    -9.44863     9.44863        60
 
  Total number of grid points =                 226981
 
  1-st set of MOs      : CO.movecs
  Output is written to : MO7.cube
  Type of picture      : ORBITAL VIEW
  Format used          : Gaussian9x Cube
  Spin                 : ALPHA   
  The orbital   7 is plotted
  max element   0.960131420214124     

 Task  times  cpu:        0.1s     wall:        0.2s
 
 
                                NWChem Input Module
                                -------------------
 
 
 Summary of allocated global arrays
-----------------------------------
  No active global arrays



                         GA Statistics for process    0
                         ------------------------------

       create   destroy   get      put      acc     scatter   gather  read&inc
calls: 1140     1140     3.88e+04 6382     6654        0        0     2707     
number of processes/call 1.00e+00 1.00e+00 1.00e+00 0.00e+00 0.00e+00
bytes total:             9.94e+06 2.91e+06 5.49e+06 0.00e+00 0.00e+00 2.17e+04
bytes remote:            0.00e+00 0.00e+00 0.00e+00 0.00e+00 0.00e+00 0.00e+00
Max memory consumed for GA by this process: 101088 bytes
 
 
 
                                     CITATION
                                     --------
                Please cite the following reference when publishing
                           results obtained with NWChem:
 
                 M. Valiev, E.J. Bylaska, N. Govind, K. Kowalski,
              T.P. Straatsma, H.J.J. van Dam, D. Wang, J. Nieplocha,
                        E. Apra, T.L. Windus, W.A. de Jong
                 "NWChem: a comprehensive and scalable open-source
                  solution for large scale molecular simulations"
                      Comput. Phys. Commun. 181, 1477 (2010)
                           doi:10.1016/j.cpc.2010.04.018
 
                                      AUTHORS
                                      -------
          E. Apra, E. J. Bylaska, W. A. de Jong, N. Govind, K. Kowalski,
       T. P. Straatsma, M. Valiev, H. J. J. van Dam, D. Wang, T. L. Windus,
        J. Hammond, J. Autschbach, K. Bhaskaran-Nair, J. Brabec, K. Lopata,
       S. A. Fischer, S. Krishnamoorthy, W. Ma, M. Klemm, O. Villa, Y. Chen,
    V. Anisimov, F. Aquino, S. Hirata, M. T. Hackler, T. Risthaus, M. Malagoli,
       A. Marenich, A. Otero-de-la-Roza, J. Mullin, P. Nichols, R. Peverati,
     J. Pittner, Y. Zhao, P.-D. Fan, A. Fonari, M. Williamson, R. J. Harrison,
       J. R. Rehr, M. Dupuis, D. Silverstein, D. M. A. Smith, J. Nieplocha,
        V. Tipparaju, M. Krishnan, B. E. Van Kuiken, A. Vazquez-Mayagoitia,
        L. Jensen, M. Swart, Q. Wu, T. Van Voorhis, A. A. Auer, M. Nooijen,
      L. D. Crosby, E. Brown, G. Cisneros, G. I. Fann, H. Fruchtl, J. Garza,
        K. Hirao, R. A. Kendall, J. A. Nichols, K. Tsemekhman, K. Wolinski,
     J. Anchell, D. E. Bernholdt, P. Borowski, T. Clark, D. Clerc, H. Dachsel,
   M. J. O. Deegan, K. Dyall, D. Elwood, E. Glendening, M. Gutowski, A. C. Hess,
         J. Jaffe, B. G. Johnson, J. Ju, R. Kobayashi, R. Kutteh, Z. Lin,
   R. Littlefield, X. Long, B. Meng, T. Nakajima, S. Niu, L. Pollack, M. Rosing,
   K. Glaesemann, G. Sandrone, M. Stave, H. Taylor, G. Thomas, J. H. van Lenthe,
                               A. T. Wong, Z. Zhang.

 Total times  cpu:        1.0s     wall:        1.4s
MA_summarize_allocated_blocks: starting scan ...
MA_summarize_allocated_blocks: scan completed: 0 heap blocks, 0 stack blocks
MA usage statistics:

	allocation statistics:
					      heap	     stack
					      ----	     -----
	current number of blocks	         0	         0
	maximum number of blocks	        25	        53
	current total bytes		         0	         0
	maximum total bytes		   2730304	  22510328
	maximum total K-bytes		      2731	     22511
	maximum total M-bytes		         3	        23
