 argument  1 = INPUT.nw
                                         
                                         
 
 
              Northwest Computational Chemistry Package (NWChem) 6.6
              ------------------------------------------------------
 
 
                    Environmental Molecular Sciences Laboratory
                       Pacific Northwest National Laboratory
                                Richland, WA 99352
 
                              Copyright (c) 1994-2015
                       Pacific Northwest National Laboratory
                            Battelle Memorial Institute
 
             NWChem is an open-source computational chemistry package
                        distributed under the terms of the
                      Educational Community License (ECL) 2.0
             A copy of the license is included with this distribution
                              in the LICENSE.TXT file
 
                                  ACKNOWLEDGMENT
                                  --------------

            This software and its documentation were developed at the
            EMSL at Pacific Northwest National Laboratory, a multiprogram
            national laboratory, operated for the U.S. Department of Energy
            by Battelle under Contract Number DE-AC05-76RL01830. Support
            for this work was provided by the Department of Energy Office
            of Biological and Environmental Research, Office of Basic
            Energy Sciences, and the Office of Advanced Scientific Computing.


           Job information
           ---------------

    hostname        = efefer-X301A
    program         = nwchem
    date            = Mon Nov 21 16:44:38 2016

    compiled        = Sen_Nov_21_15:16:49_2016
    source          = /home/efefer/mysoftwares/nwchem-6.6
    nwchem branch   = 6.6
    nwchem revision = 27746
    ga revision     = 10594
    input           = INPUT.nw
    prefix          = CO.
    data base       = ./CO.db
    status          = startup
    nproc           =        1
    time left       =     -1s



           Memory information
           ------------------

    heap     =   61857726 doubles =    471.9 Mbytes
    stack    =   61857723 doubles =    471.9 Mbytes
    global   =  123715456 doubles =    943.9 Mbytes (distinct from heap & stack)
    total    =  247430905 doubles =   1887.7 Mbytes
    verify   = yes
    hardfail = no 


           Directory information
           ---------------------
 
  0 permanent = .
  0 scratch   = .
 
 
 
 
                                NWChem Input Module
                                -------------------
 
 

 Scaling coordinates for geometry "geometry" by  1.889725989
 (inverse scale =  0.529177249)

 ORDER OF PRIMARY AXIS IS BEING SET TO 4
 C4V symmetry detected

          ------
          auto-z
          ------
 
 
                             Geometry "geometry" -> ""
                             -------------------------
 
 Output coordinates in angstroms (scale by  1.889725989 to convert to a.u.)
 
  No.       Tag          Charge          X              Y              Z
 ---- ---------------- ---------- -------------- -------------- --------------
    1 C                    6.0000     0.00000000     0.00000000    -0.72753143
    2 O                    8.0000     0.00000000     0.00000000     0.54564857
 
      Atomic Mass 
      ----------- 
 
      C                 12.000000
      O                 15.994910
 

 Effective nuclear repulsion energy (a.u.)      19.9504453039

            Nuclear Dipole moment (a.u.) 
            ----------------------------
        X                 Y               Z
 ---------------- ---------------- ----------------
     0.0000000000     0.0000000000     0.0000000000
 
      Symmetry information
      --------------------
 
 Group name             C4v       
 Group number             18
 Group order               8
 No. of unique centers     2
 
      Symmetry unique atoms
 
     1    2
 


                                Z-matrix (autoz)
                                -------- 

 Units are Angstrom for bonds and degrees for angles
 
      Type          Name      I     J     K     L     M      Value
      ----------- --------  ----- ----- ----- ----- ----- ----------
    1 Stretch                  1     2                       1.27318
 
 
            XYZ format geometry
            -------------------
     2
 geometry
 C                     0.00000000     0.00000000    -0.72753143
 O                     0.00000000     0.00000000     0.54564857
 
 ==============================================================================
                                internuclear distances
 ------------------------------------------------------------------------------
       center one      |      center two      | atomic units |  angstroms
 ------------------------------------------------------------------------------
    2 O                |   1 C                |     2.40596  |     1.27318
 ------------------------------------------------------------------------------
                         number of included internuclear distances:          1
 ==============================================================================





 Summary of "ao basis" -> "" (cartesian)
 ------------------------------------------------------------------------------
       Tag                 Description            Shells   Functions and Types
 ---------------- ------------------------------  ------  ---------------------
 *                           3-21g                    on all atoms 


 
 
                           NWChem Geometry Optimization
                           ----------------------------
 
 
 maximum gradient threshold         (gmax) =   0.000450
 rms gradient threshold             (grms) =   0.000300
 maximum cartesian step threshold   (xmax) =   0.001800
 rms cartesian step threshold       (xrms) =   0.001200
 fixed trust radius                (trust) =   0.300000
 maximum step size to saddle      (sadstp) =   0.100000
 energy precision                  (eprec) =   5.0D-06
 maximum number of steps          (nptopt) =   20
 initial hessian option           (inhess) =    0
 line search option               (linopt) =    1
 hessian update option            (modupd) =    1
 saddle point option              (modsad) =    0
 initial eigen-mode to follow     (moddir) =    0
 initial variable to follow       (vardir) =    0
 follow first negative mode     (firstneg) =    T
 apply conjugacy                    (opcg) =    F
 source of zmatrix                         =   autoz   


          -------------------
          Energy Minimization
          -------------------

 
 Names of Z-matrix variables 
    1         
 
 Variables with the same non-blank name are constrained to be equal
 
 
 Using diagonal initial Hessian 
 Scaling for Hessian diagonals: bonds = 1.00  angles = 0.25  torsions = 0.10

          --------
          Step   0
          --------
 
 
                         Geometry "geometry" -> "geometry"
                         ---------------------------------
 
 Output coordinates in angstroms (scale by  1.889725989 to convert to a.u.)
 
  No.       Tag          Charge          X              Y              Z
 ---- ---------------- ---------- -------------- -------------- --------------
    1 C                    6.0000     0.00000000     0.00000000    -0.72753143
    2 O                    8.0000     0.00000000     0.00000000     0.54564857
 
      Atomic Mass 
      ----------- 
 
      C                 12.000000
      O                 15.994910
 

 Effective nuclear repulsion energy (a.u.)      19.9504453039

            Nuclear Dipole moment (a.u.) 
            ----------------------------
        X                 Y               Z
 ---------------- ---------------- ----------------
     0.0000000000     0.0000000000     0.0000000000
 
      Symmetry information
      --------------------
 
 Group name             C4v       
 Group number             18
 Group order               8
 No. of unique centers     2
 
      Symmetry unique atoms
 
     1    2
 
 
                                 NWChem DFT Module
                                 -----------------
 
 
                      Basis "ao basis" -> "ao basis" (cartesian)
                      -----
  C (Carbon)
  ----------
            Exponent  Coefficients 
       -------------- ---------------------------------------------------------
  1 S  1.72256000E+02  0.061767
  1 S  2.59109000E+01  0.358794
  1 S  5.53335000E+00  0.700713
 
  2 S  3.66498000E+00 -0.395897
  2 S  7.70545000E-01  1.215840
 
  3 P  3.66498000E+00  0.236460
  3 P  7.70545000E-01  0.860619
 
  4 S  1.95857000E-01  1.000000
 
  5 P  1.95857000E-01  1.000000
 
  O (Oxygen)
  ----------
            Exponent  Coefficients 
       -------------- ---------------------------------------------------------
  1 S  3.22037000E+02  0.059239
  1 S  4.84308000E+01  0.351500
  1 S  1.04206000E+01  0.707658
 
  2 S  7.40294000E+00 -0.404453
  2 S  1.57620000E+00  1.221560
 
  3 P  7.40294000E+00  0.244586
  3 P  1.57620000E+00  0.853955
 
  4 S  3.73684000E-01  1.000000
 
  5 P  3.73684000E-01  1.000000
 


 Summary of "ao basis" -> "ao basis" (cartesian)
 ------------------------------------------------------------------------------
       Tag                 Description            Shells   Functions and Types
 ---------------- ------------------------------  ------  ---------------------
 C                           3-21g                   5        9   3s2p
 O                           3-21g                   5        9   3s2p




 Summary of "ao basis" -> "ao basis" (cartesian)
 ------------------------------------------------------------------------------
       Tag                 Description            Shells   Functions and Types
 ---------------- ------------------------------  ------  ---------------------
 C                           3-21g                   5        9   3s2p
 O                           3-21g                   5        9   3s2p


      Symmetry analysis of basis
      --------------------------
 
        a1         10
        a2          0
        b1          0
        b2          0
        e           8
 
  Caching 1-el integrals 
 
            General Information
            -------------------
          SCF calculation type: DFT
          Wavefunction type:  closed shell.
          No. of atoms     :     2
          No. of electrons :    14
           Alpha electrons :     7
            Beta electrons :     7
          Charge           :     0
          Spin multiplicity:     1
          Use of symmetry is: on ; symmetry adaption is: on 
          Maximum number of iterations: 128
          AO basis - number of functions:    18
                     number of shells:    10
          Convergence on energy requested: 1.00D-06
          Convergence on density requested: 1.00D-05
          Convergence on gradient requested: 5.00D-04
 
              XC Information
              --------------
                        Slater Exchange Functional  1.000 local    
                      VWN V Correlation Functional  1.000 local    
 
             Grid Information
             ----------------
          Grid used for XC integration:  medium    
          Radial quadrature: Mura-Knowles        
          Angular quadrature: Lebedev. 
          Tag              B.-S. Rad. Rad. Pts. Rad. Cut. Ang. Pts.
          ---              ---------- --------- --------- ---------
          C                   0.70       49           5.0       434
          O                   0.60       49           5.0       434
          Grid pruning is: on 
          Number of quadrature shells:    98
          Spatial weights used:  Erf1
 
          Convergence Information
          -----------------------
          Convergence aids based upon iterative change in 
          total energy or number of iterations. 
          Levelshifting, if invoked, occurs when the 
          HOMO/LUMO gap drops below (HL_TOL): 1.00D-02
          DIIS, if invoked, will attempt to extrapolate 
          using up to (NFOCK): 10 stored Fock matrices.

                    Damping( 0%)  Levelshifting(0.5)       DIIS
                  --------------- ------------------- ---------------
          dE  on:    start            ASAP                start   
          dE off:    2 iters        128 iters           128 iters 

 
      Screening Tolerance Information
      -------------------------------
          Density screening/tol_rho: 1.00D-10
          AO Gaussian exp screening on grid/accAOfunc:  14
          CD Gaussian exp screening on grid/accCDfunc:  20
          XC Gaussian exp screening on grid/accXCfunc:  20
          Schwarz screening/accCoul: 1.00D-08

 
      Superposition of Atomic Density Guess
      -------------------------------------
 
 Sum of atomic energies:        -111.83245401
 
      Non-variational initial energy
      ------------------------------

 Total energy =    -111.896185
 1-e energy   =    -192.507423
 2-e energy   =      60.660793
 HOMO         =      -0.364839
 LUMO         =       0.027452
 
 
      Symmetry analysis of molecular orbitals - initial
      -------------------------------------------------
 
  Numbering of irreducible representations: 
 
     1 a1          2 a2          3 b1          4 b2          5 e       
 
  Orbital symmetries:
 
     1 a1          2 a1          3 a1          4 a1          5 e       
     6 e           7 a1          8 e           9 e          10 a1      
    11 e          12 e          13 a1         14 a1         15 e       
    16 e          17 a1      
 
   Time after variat. SCF:      0.1
   Time prior to 1st pass:      0.1

 #quartets = 1.513D+03 #integrals = 4.701D+03 #direct =  0.0% #cached =100.0%


 Integral file          = ./CO.aoints.0
 Record size in doubles =  65536        No. of integs per rec  =  43688
 Max. records in memory =      2        Max. records in file   =  49465
 No. of bits per label  =      8        No. of bits per value  =     64


 Grid_pts file          = ./CO.gridpts.0
 Record size in doubles =  12289        No. of grid_pts per rec  =   3070
 Max. records in memory =     17        Max. recs in file   =    263800


           Memory utilization after 1st SCF pass: 
           Heap Space remaining (MW):       61.52            61516438
          Stack Space remaining (MW):       61.86            61857508

   convergence    iter        energy       DeltaE   RMS-Dens  Diis-err    time
 ---------------- ----- ----------------- --------- --------- ---------  ------
 d= 0,ls=0.0,diis     1   -111.6467448054 -1.32D+02  1.04D-01  9.75D-01     0.1
 d= 0,ls=0.0,diis     2   -109.7760738871  1.87D+00  8.52D-02  1.73D+01     0.1
 d= 0,ls=0.0,diis     3   -111.7611096814 -1.99D+00  5.40D-03  3.51D-02     0.1
 d= 0,ls=0.0,diis     4   -111.7634044617 -2.29D-03  1.98D-03  3.02D-03     0.2
 d= 0,ls=0.0,diis     5   -111.7637467259 -3.42D-04  2.96D-04  2.22D-04     0.2
  Resetting Diis
 d= 0,ls=0.0,diis     6   -111.7637664253 -1.97D-05  4.54D-05  2.51D-07     0.2
 d= 0,ls=0.0,diis     7   -111.7637664720 -4.67D-08  5.74D-06  1.59D-09     0.2


         Total DFT energy =     -111.763766471962
      One electron energy =     -192.481149449908
           Coulomb energy =       73.588043900392
    Exchange-Corr. energy =      -12.821106226319
 Nuclear repulsion energy =       19.950445303873

 Numeric. integr. density =       13.999999111304

     Total iterative time =      0.1s


 
                  Occupations of the irreducible representations
                  ----------------------------------------------
 
                     irrep           alpha         beta
                     --------     --------     --------
                     a1                5.0          5.0
                     a2                0.0          0.0
                     b1                0.0          0.0
                     b2                0.0          0.0
                     e                 2.0          2.0
 
 
                       DFT Final Molecular Orbital Analysis
                       ------------------------------------
 
 Vector    1  Occ=2.000000D+00  E=-1.862007D+01  Symmetry=a1
              MO Center=  0.0D+00,  0.0D+00,  5.5D-01, r^2= 1.6D-02
   Bfn.  Coefficient  Atom+Function         Bfn.  Coefficient  Atom+Function  
  ----- ------------  ---------------      ----- ------------  ---------------
    10      0.981339  2 O  s          
 
 Vector    2  Occ=2.000000D+00  E=-9.868543D+00  Symmetry=a1
              MO Center=  0.0D+00,  0.0D+00, -7.3D-01, r^2= 2.9D-02
   Bfn.  Coefficient  Atom+Function         Bfn.  Coefficient  Atom+Function  
  ----- ------------  ---------------      ----- ------------  ---------------
     1      0.983214  1 C  s          
 
 Vector    3  Occ=2.000000D+00  E=-1.018599D+00  Symmetry=a1
              MO Center=  2.3D-17, -1.9D-17,  2.0D-01, r^2= 4.7D-01
   Bfn.  Coefficient  Atom+Function         Bfn.  Coefficient  Atom+Function  
  ----- ------------  ---------------      ----- ------------  ---------------
    15      0.658141  2 O  s                 10     -0.216855  2 O  s          
    11      0.206729  2 O  s                  5      0.165037  1 C  pz         
    14     -0.154949  2 O  pz         
 
 Vector    4  Occ=2.000000D+00  E=-4.941264D-01  Symmetry=a1
              MO Center=  1.5D-17, -6.8D-18,  3.1D-01, r^2= 1.1D+00
   Bfn.  Coefficient  Atom+Function         Bfn.  Coefficient  Atom+Function  
  ----- ------------  ---------------      ----- ------------  ---------------
    15      0.555839  2 O  s                  6     -0.436638  1 C  s          
    14      0.335232  2 O  pz                18      0.292573  2 O  pz         
     2     -0.203003  1 C  s                  1      0.163990  1 C  s          
 
 Vector    5  Occ=2.000000D+00  E=-3.898768D-01  Symmetry=e
              MO Center= -1.6D-20, -6.8D-20,  2.0D-01, r^2= 9.0D-01
   Bfn.  Coefficient  Atom+Function         Bfn.  Coefficient  Atom+Function  
  ----- ------------  ---------------      ----- ------------  ---------------
    13      0.444316  2 O  py                17      0.446328  2 O  py         
     4      0.267707  1 C  py                 8      0.235054  1 C  py         
 
 Vector    6  Occ=2.000000D+00  E=-3.898768D-01  Symmetry=e
              MO Center= -1.4D-19,  3.2D-20,  2.0D-01, r^2= 9.0D-01
   Bfn.  Coefficient  Atom+Function         Bfn.  Coefficient  Atom+Function  
  ----- ------------  ---------------      ----- ------------  ---------------
    12      0.444316  2 O  px                16      0.446328  2 O  px         
     3      0.267707  1 C  px                 7      0.235054  1 C  px         
 
 Vector    7  Occ=2.000000D+00  E=-3.172752D-01  Symmetry=a1
              MO Center= -5.9D-17,  2.1D-18, -7.2D-01, r^2= 1.2D+00
   Bfn.  Coefficient  Atom+Function         Bfn.  Coefficient  Atom+Function  
  ----- ------------  ---------------      ----- ------------  ---------------
     6      0.713940  1 C  s                  5     -0.364000  1 C  pz         
    18      0.319700  2 O  pz                14      0.299442  2 O  pz         
     9     -0.160636  1 C  pz         
 
 Vector    8  Occ=0.000000D+00  E=-1.064059D-01  Symmetry=e
              MO Center= -2.2D-17,  5.9D-18, -4.1D-01, r^2= 1.2D+00
   Bfn.  Coefficient  Atom+Function         Bfn.  Coefficient  Atom+Function  
  ----- ------------  ---------------      ----- ------------  ---------------
     7      0.543298  1 C  px                 3      0.491558  1 C  px         
    16     -0.409397  2 O  px                12     -0.337919  2 O  px         
 
 Vector    9  Occ=0.000000D+00  E=-1.064059D-01  Symmetry=e
              MO Center= -9.7D-19, -3.6D-18, -4.1D-01, r^2= 1.2D+00
   Bfn.  Coefficient  Atom+Function         Bfn.  Coefficient  Atom+Function  
  ----- ------------  ---------------      ----- ------------  ---------------
     8      0.543298  1 C  py                 4      0.491558  1 C  py         
    17     -0.409397  2 O  py                13     -0.337919  2 O  py         
 
 Vector   10  Occ=0.000000D+00  E= 2.226851D-01  Symmetry=a1
              MO Center=  7.7D-17, -8.5D-17, -5.0D-01, r^2= 1.7D+00
   Bfn.  Coefficient  Atom+Function         Bfn.  Coefficient  Atom+Function  
  ----- ------------  ---------------      ----- ------------  ---------------
     9      1.290073  1 C  pz                15     -1.258049  2 O  s          
     6      1.044472  1 C  s                 18      0.719943  2 O  pz         
     5      0.346014  1 C  pz                14      0.305327  2 O  pz         
 
 Vector   11  Occ=0.000000D+00  E= 6.237580D-01  Symmetry=e
              MO Center= -9.7D-17, -2.8D-16, -7.8D-01, r^2= 1.5D+00
   Bfn.  Coefficient  Atom+Function         Bfn.  Coefficient  Atom+Function  
  ----- ------------  ---------------      ----- ------------  ---------------
     8     -1.024260  1 C  py                 4      0.973673  1 C  py         
     7     -0.348054  1 C  px                 3      0.330864  1 C  px         
 
 Vector   12  Occ=0.000000D+00  E= 6.237580D-01  Symmetry=e
              MO Center=  2.7D-17, -9.2D-18, -7.8D-01, r^2= 1.5D+00
   Bfn.  Coefficient  Atom+Function         Bfn.  Coefficient  Atom+Function  
  ----- ------------  ---------------      ----- ------------  ---------------
     7     -1.024260  1 C  px                 3      0.973673  1 C  px         
     8      0.348054  1 C  py                 4     -0.330864  1 C  py         
 
 Vector   13  Occ=0.000000D+00  E= 6.414182D-01  Symmetry=a1
              MO Center= -1.5D-16,  3.3D-17, -7.4D-01, r^2= 1.3D+00
   Bfn.  Coefficient  Atom+Function         Bfn.  Coefficient  Atom+Function  
  ----- ------------  ---------------      ----- ------------  ---------------
     9     -1.104813  1 C  pz                 5      1.075780  1 C  pz         
    15      0.421286  2 O  s                 14      0.297308  2 O  pz         
     6     -0.213373  1 C  s                  2      0.170688  1 C  s          
 
 Vector   14  Occ=0.000000D+00  E= 9.763533D-01  Symmetry=a1
              MO Center=  3.5D-16,  2.9D-16, -7.5D-01, r^2= 1.3D+00
   Bfn.  Coefficient  Atom+Function         Bfn.  Coefficient  Atom+Function  
  ----- ------------  ---------------      ----- ------------  ---------------
     6     -1.546529  1 C  s                  2      1.475095  1 C  s          
    15      0.391427  2 O  s                 18     -0.295586  2 O  pz         
    14      0.258434  2 O  pz                 5     -0.158945  1 C  pz         
 
 Vector   15  Occ=0.000000D+00  E= 1.329940D+00  Symmetry=e
              MO Center= -2.6D-16, -1.4D-16,  5.3D-01, r^2= 9.1D-01
   Bfn.  Coefficient  Atom+Function         Bfn.  Coefficient  Atom+Function  
  ----- ------------  ---------------      ----- ------------  ---------------
    16     -0.968810  2 O  px                12      0.885515  2 O  px         
    17     -0.532282  2 O  py                13      0.486518  2 O  py         
     7      0.292818  1 C  px                 8      0.160880  1 C  py         
 
 Vector   16  Occ=0.000000D+00  E= 1.329940D+00  Symmetry=e
              MO Center=  8.7D-17, -1.6D-16,  5.3D-01, r^2= 9.1D-01
   Bfn.  Coefficient  Atom+Function         Bfn.  Coefficient  Atom+Function  
  ----- ------------  ---------------      ----- ------------  ---------------
    17     -0.968810  2 O  py                13      0.885515  2 O  py         
    16      0.532282  2 O  px                12     -0.486518  2 O  px         
     8      0.292818  1 C  py                 7     -0.160880  1 C  px         
 
 Vector   17  Occ=0.000000D+00  E= 1.423559D+00  Symmetry=a1
              MO Center=  7.4D-18,  3.8D-16,  8.7D-01, r^2= 7.4D-01
   Bfn.  Coefficient  Atom+Function         Bfn.  Coefficient  Atom+Function  
  ----- ------------  ---------------      ----- ------------  ---------------
    18      1.293369  2 O  pz                14     -0.938965  2 O  pz         
     2      0.527779  1 C  s                  5      0.276891  1 C  pz         
    11     -0.231287  2 O  s          
 

 center of mass
 --------------
 x =   0.00000000 y =   0.00000000 z =  -0.00018748

 moments of inertia (a.u.)
 ------------------
          39.688186817038           0.000000000000           0.000000000000
           0.000000000000          39.688186817038           0.000000000000
           0.000000000000           0.000000000000           0.000000000000
 
     Multipole analysis of the density
     ---------------------------------
 
     L   x y z        total         alpha         beta         nuclear
     -   - - -        -----         -----         ----         -------
     0   0 0 0     -0.000000     -7.000000     -7.000000     14.000000
 
     1   1 0 0      0.000000      0.000000      0.000000      0.000000
     1   0 1 0      0.000000      0.000000      0.000000      0.000000
     1   0 0 1     -0.027898     -0.013949     -0.013949      0.000000
 
     2   2 0 0     -7.548504     -3.774252     -3.774252      0.000000
     2   1 1 0     -0.000000     -0.000000     -0.000000      0.000000
     2   1 0 1      0.000000      0.000000      0.000000      0.000000
     2   0 2 0     -7.548504     -3.774252     -3.774252      0.000000
     2   0 1 1      0.000000      0.000000      0.000000      0.000000
     2   0 0 2     -9.283728    -14.565264    -14.565264     19.846800
 

 Parallel integral file used       1 records with       0 large values

 
            General Information
            -------------------
          SCF calculation type: DFT
          Wavefunction type:  closed shell.
          No. of atoms     :     2
          No. of electrons :    14
           Alpha electrons :     7
            Beta electrons :     7
          Charge           :     0
          Spin multiplicity:     1
          Use of symmetry is: on ; symmetry adaption is: on 
          Maximum number of iterations: 128
          AO basis - number of functions:    18
                     number of shells:    10
          Convergence on energy requested: 1.00D-06
          Convergence on density requested: 1.00D-05
          Convergence on gradient requested: 5.00D-04
 
              XC Information
              --------------
                        Slater Exchange Functional  1.000 local    
                      VWN V Correlation Functional  1.000 local    
 
             Grid Information
             ----------------
          Grid used for XC integration:  medium    
          Radial quadrature: Mura-Knowles        
          Angular quadrature: Lebedev. 
          Tag              B.-S. Rad. Rad. Pts. Rad. Cut. Ang. Pts.
          ---              ---------- --------- --------- ---------
          C                   0.70       49           5.0       434
          O                   0.60       49           5.0       434
          Grid pruning is: on 
          Number of quadrature shells:    98
          Spatial weights used:  Erf1
 
          Convergence Information
          -----------------------
          Convergence aids based upon iterative change in 
          total energy or number of iterations. 
          Levelshifting, if invoked, occurs when the 
          HOMO/LUMO gap drops below (HL_TOL): 1.00D-02
          DIIS, if invoked, will attempt to extrapolate 
          using up to (NFOCK): 10 stored Fock matrices.

                    Damping( 0%)  Levelshifting(0.5)       DIIS
                  --------------- ------------------- ---------------
          dE  on:    start            ASAP                start   
          dE off:    2 iters        128 iters           128 iters 

 
      Screening Tolerance Information
      -------------------------------
          Density screening/tol_rho: 1.00D-10
          AO Gaussian exp screening on grid/accAOfunc:  14
          CD Gaussian exp screening on grid/accCDfunc:  20
          XC Gaussian exp screening on grid/accXCfunc:  20
          Schwarz screening/accCoul: 1.00D-08

 
 
                            NWChem DFT Gradient Module
                            --------------------------
 
 

  charge          =   0.00
  wavefunction    = closed shell

  Using symmetry


                         DFT ENERGY GRADIENTS

    atom               coordinates                        gradient
                 x          y          z           x          y          z
   1 C       0.000000   0.000000  -1.374835    0.000000   0.000000  -0.157318
   2 O       0.000000   0.000000   1.031126    0.000000   0.000000   0.157318
 
                 ----------------------------------------
                 |  Time  |  1-e(secs)   |  2-e(secs)   |
                 ----------------------------------------
                 |  CPU   |       0.00   |       0.04   |
                 ----------------------------------------
                 |  WALL  |       0.00   |       0.04   |
                 ----------------------------------------

@ Step       Energy      Delta E   Gmax     Grms     Xrms     Xmax   Walltime
@ ---- ---------------- -------- -------- -------- -------- -------- --------
@    0    -111.76376647  0.0D+00  0.15732  0.15732  0.00000  0.00000      0.3
                                                                    



                                Z-matrix (autoz)
                                -------- 

 Units are Angstrom for bonds and degrees for angles
 
      Type          Name      I     J     K     L     M      Value     Gradient
      ----------- --------  ----- ----- ----- ----- ----- ---------- ----------
    1 Stretch                  1     2                       1.27318    0.15732
 
 Restricting large step in mode    1 eval= 4.9D-01 step=-3.2D-01 new=-3.0D-01
 
                                 NWChem DFT Module
                                 -----------------
 
 


 Summary of "ao basis" -> "ao basis" (cartesian)
 ------------------------------------------------------------------------------
       Tag                 Description            Shells   Functions and Types
 ---------------- ------------------------------  ------  ---------------------
 C                           3-21g                   5        9   3s2p
 O                           3-21g                   5        9   3s2p


      Symmetry analysis of basis
      --------------------------
 
        a1         10
        a2          0
        b1          0
        b2          0
        e           8
 
  Caching 1-el integrals 
 
            General Information
            -------------------
          SCF calculation type: DFT
          Wavefunction type:  closed shell.
          No. of atoms     :     2
          No. of electrons :    14
           Alpha electrons :     7
            Beta electrons :     7
          Charge           :     0
          Spin multiplicity:     1
          Use of symmetry is: on ; symmetry adaption is: on 
          Maximum number of iterations: 128
          AO basis - number of functions:    18
                     number of shells:    10
          Convergence on energy requested: 1.00D-06
          Convergence on density requested: 1.00D-05
          Convergence on gradient requested: 5.00D-04
 
              XC Information
              --------------
                        Slater Exchange Functional  1.000 local    
                      VWN V Correlation Functional  1.000 local    
 
             Grid Information
             ----------------
          Grid used for XC integration:  medium    
          Radial quadrature: Mura-Knowles        
          Angular quadrature: Lebedev. 
          Tag              B.-S. Rad. Rad. Pts. Rad. Cut. Ang. Pts.
          ---              ---------- --------- --------- ---------
          C                   0.70       49           5.0       434
          O                   0.60       49           5.0       434
          Grid pruning is: on 
          Number of quadrature shells:    98
          Spatial weights used:  Erf1
 
          Convergence Information
          -----------------------
          Convergence aids based upon iterative change in 
          total energy or number of iterations. 
          Levelshifting, if invoked, occurs when the 
          HOMO/LUMO gap drops below (HL_TOL): 1.00D-02
          DIIS, if invoked, will attempt to extrapolate 
          using up to (NFOCK): 10 stored Fock matrices.

                    Damping( 0%)  Levelshifting(0.5)       DIIS
                  --------------- ------------------- ---------------
          dE  on:    start            ASAP                start   
          dE off:    2 iters        128 iters           128 iters 

 
      Screening Tolerance Information
      -------------------------------
          Density screening/tol_rho: 1.00D-10
          AO Gaussian exp screening on grid/accAOfunc:  14
          CD Gaussian exp screening on grid/accCDfunc:  20
          XC Gaussian exp screening on grid/accXCfunc:  20
          Schwarz screening/accCoul: 1.00D-08


 Loading old vectors from job with title :



 
      Symmetry analysis of molecular orbitals - initial
      -------------------------------------------------
 
  Numbering of irreducible representations: 
 
     1 a1          2 a2          3 b1          4 b2          5 e       
 
  Orbital symmetries:
 
     1 a1          2 a1          3 a1          4 a1          5 e       
     6 e           7 a1          8 e           9 e          10 a1      
    11 e          12 e          13 a1         14 a1         15 e       
    16 e          17 a1      
 
   Time after variat. SCF:      0.2
   Time prior to 1st pass:      0.2

 #quartets = 1.539D+03 #integrals = 4.769D+03 #direct =  0.0% #cached =100.0%


 Integral file          = ./CO.aoints.0
 Record size in doubles =  65536        No. of integs per rec  =  43688
 Max. records in memory =      2        Max. records in file   =  49464
 No. of bits per label  =      8        No. of bits per value  =     64


 Grid_pts file          = ./CO.gridpts.0
 Record size in doubles =  12289        No. of grid_pts per rec  =   3070
 Max. records in memory =     17        Max. recs in file   =    263790


           Memory utilization after 1st SCF pass: 
           Heap Space remaining (MW):       61.52            61516438
          Stack Space remaining (MW):       61.86            61857508

   convergence    iter        energy       DeltaE   RMS-Dens  Diis-err    time
 ---------------- ----- ----------------- --------- --------- ---------  ------
 d= 0,ls=0.0,diis     1   -111.7614705180 -1.35D+02  2.01D-02  1.66D-01     0.3
 d= 0,ls=0.0,diis     2   -111.7708241077 -9.35D-03  1.26D-02  1.09D-01     0.3
 d= 0,ls=0.0,diis     3   -111.7661792409  4.64D-03  9.47D-03  1.45D-01     0.3
 d= 0,ls=0.0,diis     4   -111.7790680510 -1.29D-02  1.86D-03  3.48D-03     0.3
 d= 0,ls=0.0,diis     5   -111.7794541258 -3.86D-04  5.73D-05  3.49D-06     0.3
 d= 0,ls=0.0,diis     6   -111.7794544835 -3.58D-07  4.48D-06  4.60D-08     0.3


         Total DFT energy =     -111.779454483458
      One electron energy =     -197.833793435874
           Coulomb energy =       76.223287323827
    Exchange-Corr. energy =      -12.961389629406
 Nuclear repulsion energy =       22.792441257994

 Numeric. integr. density =       14.000000624879

     Total iterative time =      0.1s


 
                  Occupations of the irreducible representations
                  ----------------------------------------------
 
                     irrep           alpha         beta
                     --------     --------     --------
                     a1                5.0          5.0
                     a2                0.0          0.0
                     b1                0.0          0.0
                     b2                0.0          0.0
                     e                 2.0          2.0
 
 
                       DFT Final Molecular Orbital Analysis
                       ------------------------------------
 
 Vector    1  Occ=2.000000D+00  E=-1.862004D+01  Symmetry=a1
              MO Center= -1.6D-18, -6.8D-18,  4.7D-01, r^2= 1.6D-02
   Bfn.  Coefficient  Atom+Function         Bfn.  Coefficient  Atom+Function  
  ----- ------------  ---------------      ----- ------------  ---------------
    10      0.981512  2 O  s          
 
 Vector    2  Occ=2.000000D+00  E=-9.832366D+00  Symmetry=a1
              MO Center= -7.1D-19,  2.6D-18, -6.5D-01, r^2= 2.9D-02
   Bfn.  Coefficient  Atom+Function         Bfn.  Coefficient  Atom+Function  
  ----- ------------  ---------------      ----- ------------  ---------------
     1      0.983105  1 C  s          
 
 Vector    3  Occ=2.000000D+00  E=-1.108088D+00  Symmetry=a1
              MO Center=  6.0D-17, -5.8D-17,  1.1D-01, r^2= 4.1D-01
   Bfn.  Coefficient  Atom+Function         Bfn.  Coefficient  Atom+Function  
  ----- ------------  ---------------      ----- ------------  ---------------
    15      0.629701  2 O  s                 10     -0.214056  2 O  s          
     5      0.205746  1 C  pz                11      0.205535  2 O  s          
    14     -0.188826  2 O  pz                18     -0.150264  2 O  pz         
 
 Vector    4  Occ=2.000000D+00  E=-4.878564D-01  Symmetry=a1
              MO Center= -1.1D-16, -1.9D-16,  5.1D-01, r^2= 7.2D-01
   Bfn.  Coefficient  Atom+Function         Bfn.  Coefficient  Atom+Function  
  ----- ------------  ---------------      ----- ------------  ---------------
    15      0.569193  2 O  s                 14      0.399383  2 O  pz         
    18      0.337288  2 O  pz                 6     -0.277055  1 C  s          
     2     -0.178085  1 C  s          
 
 Vector    5  Occ=2.000000D+00  E=-4.395623D-01  Symmetry=e
              MO Center= -4.0D-19, -1.0D-18,  1.6D-01, r^2= 8.1D-01
   Bfn.  Coefficient  Atom+Function         Bfn.  Coefficient  Atom+Function  
  ----- ------------  ---------------      ----- ------------  ---------------
    13      0.426769  2 O  py                17      0.412431  2 O  py         
     4      0.272435  1 C  py                 8      0.192694  1 C  py         
    12      0.166773  2 O  px                16      0.161170  2 O  px         
 
 Vector    6  Occ=2.000000D+00  E=-4.395623D-01  Symmetry=e
              MO Center= -9.4D-19,  3.7D-19,  1.6D-01, r^2= 8.1D-01
   Bfn.  Coefficient  Atom+Function         Bfn.  Coefficient  Atom+Function  
  ----- ------------  ---------------      ----- ------------  ---------------
    12      0.426769  2 O  px                16      0.412431  2 O  px         
     3      0.272435  1 C  px                 7      0.192694  1 C  px         
    13     -0.166773  2 O  py                17     -0.161170  2 O  py         
 
 Vector    7  Occ=2.000000D+00  E=-3.044306D-01  Symmetry=a1
              MO Center= -5.2D-17, -3.0D-17, -8.7D-01, r^2= 9.6D-01
   Bfn.  Coefficient  Atom+Function         Bfn.  Coefficient  Atom+Function  
  ----- ------------  ---------------      ----- ------------  ---------------
     6      0.822718  1 C  s                  5     -0.371409  1 C  pz         
    18      0.239584  2 O  pz                14      0.233636  2 O  pz         
     1     -0.159951  1 C  s          
 
 Vector    8  Occ=0.000000D+00  E=-5.249705D-02  Symmetry=e
              MO Center=  9.0D-18,  2.7D-17, -3.9D-01, r^2= 1.2D+00
   Bfn.  Coefficient  Atom+Function         Bfn.  Coefficient  Atom+Function  
  ----- ------------  ---------------      ----- ------------  ---------------
     8      0.590758  1 C  py                 4      0.472230  1 C  py         
    17     -0.455905  2 O  py                13     -0.343496  2 O  py         
     7      0.199090  1 C  px                 3      0.159145  1 C  px         
    16     -0.153644  2 O  px         
 
 Vector    9  Occ=0.000000D+00  E=-5.249705D-02  Symmetry=e
              MO Center=  2.4D-18, -8.1D-19, -3.9D-01, r^2= 1.2D+00
   Bfn.  Coefficient  Atom+Function         Bfn.  Coefficient  Atom+Function  
  ----- ------------  ---------------      ----- ------------  ---------------
     7      0.590758  1 C  px                 3      0.472230  1 C  px         
    16     -0.455905  2 O  px                12     -0.343496  2 O  px         
     8     -0.199090  1 C  py                 4     -0.159145  1 C  py         
    17      0.153644  2 O  py         
 
 Vector   10  Occ=0.000000D+00  E= 2.934549D-01  Symmetry=a1
              MO Center= -1.4D-16,  3.0D-17, -5.9D-01, r^2= 2.1D+00
   Bfn.  Coefficient  Atom+Function         Bfn.  Coefficient  Atom+Function  
  ----- ------------  ---------------      ----- ------------  ---------------
    15     -1.712601  2 O  s                  9      1.641231  1 C  pz         
     6      1.433537  1 C  s                 18      0.643100  2 O  pz         
    14      0.159510  2 O  pz         
 
 Vector   11  Occ=0.000000D+00  E= 6.203676D-01  Symmetry=e
              MO Center=  4.6D-17, -1.3D-16, -7.0D-01, r^2= 1.5D+00
   Bfn.  Coefficient  Atom+Function         Bfn.  Coefficient  Atom+Function  
  ----- ------------  ---------------      ----- ------------  ---------------
     8     -1.022035  1 C  py                 4      0.970073  1 C  py         
     7      0.355296  1 C  px                 3     -0.337232  1 C  px         
 
 Vector   12  Occ=0.000000D+00  E= 6.203676D-01  Symmetry=e
              MO Center= -3.4D-16, -1.2D-16, -7.0D-01, r^2= 1.5D+00
   Bfn.  Coefficient  Atom+Function         Bfn.  Coefficient  Atom+Function  
  ----- ------------  ---------------      ----- ------------  ---------------
     7     -1.022035  1 C  px                 3      0.970073  1 C  px         
     8     -0.355296  1 C  py                 4      0.337232  1 C  py         
 
 Vector   13  Occ=0.000000D+00  E= 7.871349D-01  Symmetry=a1
              MO Center= -1.0D-16, -6.7D-17, -7.9D-01, r^2= 1.2D+00
   Bfn.  Coefficient  Atom+Function         Bfn.  Coefficient  Atom+Function  
  ----- ------------  ---------------      ----- ------------  ---------------
     5      1.190967  1 C  pz                 6      0.767847  1 C  s          
    18      0.593850  2 O  pz                 9     -0.586304  1 C  pz         
    15     -0.336319  2 O  s                  2     -0.226803  1 C  s          
    14      0.216947  2 O  pz         
 
 Vector   14  Occ=0.000000D+00  E= 1.044827D+00  Symmetry=a1
              MO Center=  3.5D-16,  1.9D-16, -4.0D-01, r^2= 1.0D+00
   Bfn.  Coefficient  Atom+Function         Bfn.  Coefficient  Atom+Function  
  ----- ------------  ---------------      ----- ------------  ---------------
     2      1.460149  1 C  s                  6     -1.187671  1 C  s          
    14      0.456117  2 O  pz                 5      0.297777  1 C  pz         
     9     -0.161908  1 C  pz         
 
 Vector   15  Occ=0.000000D+00  E= 1.339472D+00  Symmetry=e
              MO Center= -4.6D-15, -3.7D-15,  4.5D-01, r^2= 9.3D-01
   Bfn.  Coefficient  Atom+Function         Bfn.  Coefficient  Atom+Function  
  ----- ------------  ---------------      ----- ------------  ---------------
    16      0.899683  2 O  px                12     -0.784512  2 O  px         
    17      0.731162  2 O  py                13     -0.637565  2 O  py         
     7     -0.310831  1 C  px                 8     -0.252609  1 C  py         
 
 Vector   16  Occ=0.000000D+00  E= 1.339472D+00  Symmetry=e
              MO Center=  8.0D-15, -9.8D-15,  4.5D-01, r^2= 9.3D-01
   Bfn.  Coefficient  Atom+Function         Bfn.  Coefficient  Atom+Function  
  ----- ------------  ---------------      ----- ------------  ---------------
    17      0.899683  2 O  py                13     -0.784512  2 O  py         
    16     -0.731162  2 O  px                12      0.637565  2 O  px         
     8     -0.310831  1 C  py                 7      0.252609  1 C  px         
 
 Vector   17  Occ=0.000000D+00  E= 1.353833D+00  Symmetry=a1
              MO Center= -3.1D-15,  1.4D-14,  8.0D-01, r^2= 7.8D-01
   Bfn.  Coefficient  Atom+Function         Bfn.  Coefficient  Atom+Function  
  ----- ------------  ---------------      ----- ------------  ---------------
    18      1.397604  2 O  pz                14     -0.919425  2 O  pz         
     2      0.659919  1 C  s                 15     -0.343538  2 O  s          
     9      0.198953  1 C  pz                 6      0.180110  1 C  s          
     5      0.169239  1 C  pz                11     -0.154483  2 O  s          
 

 center of mass
 --------------
 x =   0.00000000 y =   0.00000000 z =  -0.02159267

 moments of inertia (a.u.)
 ------------------
          30.407783014276           0.000000000000           0.000000000000
           0.000000000000          30.407783014276           0.000000000000
           0.000000000000           0.000000000000           0.000000000000
 
     Multipole analysis of the density
     ---------------------------------
 
     L   x y z        total         alpha         beta         nuclear
     -   - - -        -----         -----         ----         -------
     0   0 0 0     -0.000000     -7.000000     -7.000000     14.000000
 
     1   1 0 0      0.000000      0.000000      0.000000      0.000000
     1   0 1 0      0.000000      0.000000      0.000000      0.000000
     1   0 0 1      0.117105      0.208552      0.208552     -0.300000
 
     2   2 0 0     -7.312655     -3.656327     -3.656327      0.000000
     2   1 1 0      0.000000      0.000000      0.000000      0.000000
     2   1 0 1      0.000000      0.000000      0.000000      0.000000
     2   0 2 0     -7.312655     -3.656327     -3.656327      0.000000
     2   0 1 1      0.000000      0.000000      0.000000      0.000000
     2   0 0 2     -9.247245    -12.229820    -12.229820     15.212394
 

 Parallel integral file used       1 records with       0 large values

 Line search: 
     step= 1.00 grad=-4.7D-02 hess= 3.2D-02 energy=   -111.779454 mode=downhill
 new step= 0.75                   predicted energy=   -111.781440

          --------
          Step   1
          --------
 
 
                         Geometry "geometry" -> "geometry"
                         ---------------------------------
 
 Output coordinates in angstroms (scale by  1.889725989 to convert to a.u.)
 
  No.       Tag          Charge          X              Y              Z
 ---- ---------------- ---------- -------------- -------------- --------------
    1 C                    6.0000     0.00000000     0.00000000    -0.66808166
    2 O                    8.0000     0.00000000     0.00000000     0.48619880
 
      Atomic Mass 
      ----------- 
 
      C                 12.000000
      O                 15.994910
 

 Effective nuclear repulsion energy (a.u.)      22.0054908484

            Nuclear Dipole moment (a.u.) 
            ----------------------------
        X                 Y               Z
 ---------------- ---------------- ----------------
     0.0000000000     0.0000000000    -0.2246875634
 
      Symmetry information
      --------------------
 
 Group name             C4v       
 Group number             18
 Group order               8
 No. of unique centers     2
 
      Symmetry unique atoms
 
     1    2
 
 
                                 NWChem DFT Module
                                 -----------------
 
 


 Summary of "ao basis" -> "ao basis" (cartesian)
 ------------------------------------------------------------------------------
       Tag                 Description            Shells   Functions and Types
 ---------------- ------------------------------  ------  ---------------------
 C                           3-21g                   5        9   3s2p
 O                           3-21g                   5        9   3s2p


      Symmetry analysis of basis
      --------------------------
 
        a1         10
        a2          0
        b1          0
        b2          0
        e           8
 
  Caching 1-el integrals 
 
            General Information
            -------------------
          SCF calculation type: DFT
          Wavefunction type:  closed shell.
          No. of atoms     :     2
          No. of electrons :    14
           Alpha electrons :     7
            Beta electrons :     7
          Charge           :     0
          Spin multiplicity:     1
          Use of symmetry is: on ; symmetry adaption is: on 
          Maximum number of iterations: 128
          AO basis - number of functions:    18
                     number of shells:    10
          Convergence on energy requested: 1.00D-06
          Convergence on density requested: 1.00D-05
          Convergence on gradient requested: 5.00D-04
 
              XC Information
              --------------
                        Slater Exchange Functional  1.000 local    
                      VWN V Correlation Functional  1.000 local    
 
             Grid Information
             ----------------
          Grid used for XC integration:  medium    
          Radial quadrature: Mura-Knowles        
          Angular quadrature: Lebedev. 
          Tag              B.-S. Rad. Rad. Pts. Rad. Cut. Ang. Pts.
          ---              ---------- --------- --------- ---------
          C                   0.70       49           5.0       434
          O                   0.60       49           5.0       434
          Grid pruning is: on 
          Number of quadrature shells:    98
          Spatial weights used:  Erf1
 
          Convergence Information
          -----------------------
          Convergence aids based upon iterative change in 
          total energy or number of iterations. 
          Levelshifting, if invoked, occurs when the 
          HOMO/LUMO gap drops below (HL_TOL): 1.00D-02
          DIIS, if invoked, will attempt to extrapolate 
          using up to (NFOCK): 10 stored Fock matrices.

                    Damping( 0%)  Levelshifting(0.5)       DIIS
                  --------------- ------------------- ---------------
          dE  on:    start            ASAP                start   
          dE off:    2 iters        128 iters           128 iters 

 
      Screening Tolerance Information
      -------------------------------
          Density screening/tol_rho: 1.00D-10
          AO Gaussian exp screening on grid/accAOfunc:  14
          CD Gaussian exp screening on grid/accCDfunc:  20
          XC Gaussian exp screening on grid/accXCfunc:  20
          Schwarz screening/accCoul: 1.00D-08


 Loading old vectors from job with title :



 
      Symmetry analysis of molecular orbitals - initial
      -------------------------------------------------
 
  Numbering of irreducible representations: 
 
     1 a1          2 a2          3 b1          4 b2          5 e       
 
  Orbital symmetries:
 
     1 a1          2 a1          3 a1          4 a1          5 e       
     6 e           7 a1          8 e           9 e          10 a1      
    11 e          12 e          13 a1         14 a1         15 e       
    16 e          17 a1      
 
   Time after variat. SCF:      0.4
   Time prior to 1st pass:      0.4

 #quartets = 1.536D+03 #integrals = 4.756D+03 #direct =  0.0% #cached =100.0%


 Integral file          = ./CO.aoints.0
 Record size in doubles =  65536        No. of integs per rec  =  43688
 Max. records in memory =      2        Max. records in file   =  49464
 No. of bits per label  =      8        No. of bits per value  =     64


 Grid_pts file          = ./CO.gridpts.0
 Record size in doubles =  12289        No. of grid_pts per rec  =   3070
 Max. records in memory =     17        Max. recs in file   =    263790


           Memory utilization after 1st SCF pass: 
           Heap Space remaining (MW):       61.52            61516438
          Stack Space remaining (MW):       61.86            61857508

   convergence    iter        energy       DeltaE   RMS-Dens  Diis-err    time
 ---------------- ----- ----------------- --------- --------- ---------  ------
 d= 0,ls=0.0,diis     1   -111.7821144999 -1.34D+02  5.39D-03  1.31D-02     0.4
 d= 0,ls=0.0,diis     2   -111.7826711413 -5.57D-04  3.88D-03  9.83D-03     0.4
 d= 0,ls=0.0,diis     3   -111.7822019909  4.69D-04  2.90D-03  1.33D-02     0.4
 d= 0,ls=0.0,diis     4   -111.7834282290 -1.23D-03  4.99D-04  3.08D-04     0.4
 d= 0,ls=0.0,diis     5   -111.7834622266 -3.40D-05  6.36D-06  1.26D-07     0.4
 d= 0,ls=0.0,diis     6   -111.7834622381 -1.15D-08  6.06D-07  2.38D-10     0.5


         Total DFT energy =     -111.783462238077
      One electron energy =     -196.364066608974
           Coulomb energy =       75.496109405066
    Exchange-Corr. energy =      -12.920995882605
 Nuclear repulsion energy =       22.005490848437

 Numeric. integr. density =       13.999999972182

     Total iterative time =      0.1s


 
                  Occupations of the irreducible representations
                  ----------------------------------------------
 
                     irrep           alpha         beta
                     --------     --------     --------
                     a1                5.0          5.0
                     a2                0.0          0.0
                     b1                0.0          0.0
                     b2                0.0          0.0
                     e                 2.0          2.0
 
 
                       DFT Final Molecular Orbital Analysis
                       ------------------------------------
 
 Vector    1  Occ=2.000000D+00  E=-1.862094D+01  Symmetry=a1
              MO Center= -3.0D-18, -9.6D-19,  4.9D-01, r^2= 1.6D-02
   Bfn.  Coefficient  Atom+Function         Bfn.  Coefficient  Atom+Function  
  ----- ------------  ---------------      ----- ------------  ---------------
    10      0.981477  2 O  s          
 
 Vector    2  Occ=2.000000D+00  E=-9.842062D+00  Symmetry=a1
              MO Center= -1.1D-35, -4.7D-36, -6.7D-01, r^2= 2.9D-02
   Bfn.  Coefficient  Atom+Function         Bfn.  Coefficient  Atom+Function  
  ----- ------------  ---------------      ----- ------------  ---------------
     1      0.983123  1 C  s          
 
 Vector    3  Occ=2.000000D+00  E=-1.085026D+00  Symmetry=a1
              MO Center= -3.5D-33, -1.1D-33,  1.3D-01, r^2= 4.3D-01
   Bfn.  Coefficient  Atom+Function         Bfn.  Coefficient  Atom+Function  
  ----- ------------  ---------------      ----- ------------  ---------------
    15      0.638296  2 O  s                 10     -0.214184  2 O  s          
    11      0.205097  2 O  s                  5      0.195007  1 C  pz         
    14     -0.180408  2 O  pz                18     -0.152978  2 O  pz         
 
 Vector    4  Occ=2.000000D+00  E=-4.890828D-01  Symmetry=a1
              MO Center=  1.2D-16,  7.9D-17,  4.7D-01, r^2= 8.0D-01
   Bfn.  Coefficient  Atom+Function         Bfn.  Coefficient  Atom+Function  
  ----- ------------  ---------------      ----- ------------  ---------------
    15      0.568923  2 O  s                 14      0.384324  2 O  pz         
    18      0.328085  2 O  pz                 6     -0.318346  1 C  s          
     2     -0.184818  1 C  s          
 
 Vector    5  Occ=2.000000D+00  E=-4.261332D-01  Symmetry=e
              MO Center= -2.5D-18,  1.6D-19,  1.7D-01, r^2= 8.3D-01
   Bfn.  Coefficient  Atom+Function         Bfn.  Coefficient  Atom+Function  
  ----- ------------  ---------------      ----- ------------  ---------------
    12      0.456501  2 O  px                16      0.446387  2 O  px         
     3      0.286634  1 C  px                 7      0.216135  1 C  px         
 
 Vector    6  Occ=2.000000D+00  E=-4.261332D-01  Symmetry=e
              MO Center= -1.5D-18, -2.3D-17,  1.7D-01, r^2= 8.3D-01
   Bfn.  Coefficient  Atom+Function         Bfn.  Coefficient  Atom+Function  
  ----- ------------  ---------------      ----- ------------  ---------------
    13      0.456501  2 O  py                17      0.446387  2 O  py         
     4      0.286634  1 C  py                 8      0.216135  1 C  py         
 
 Vector    7  Occ=2.000000D+00  E=-3.082935D-01  Symmetry=a1
              MO Center=  1.4D-16,  4.3D-17, -8.4D-01, r^2= 1.0D+00
   Bfn.  Coefficient  Atom+Function         Bfn.  Coefficient  Atom+Function  
  ----- ------------  ---------------      ----- ------------  ---------------
     6      0.799684  1 C  s                  5     -0.369849  1 C  pz         
    18      0.262581  2 O  pz                14      0.251084  2 O  pz         
     1     -0.157339  1 C  s          
 
 Vector    8  Occ=0.000000D+00  E=-6.792001D-02  Symmetry=e
              MO Center= -1.1D-19,  4.8D-19, -3.9D-01, r^2= 1.2D+00
   Bfn.  Coefficient  Atom+Function         Bfn.  Coefficient  Atom+Function  
  ----- ------------  ---------------      ----- ------------  ---------------
     8      0.588909  1 C  py                 4      0.488906  1 C  py         
    17     -0.452257  2 O  py                13     -0.349982  2 O  py         
 
 Vector    9  Occ=0.000000D+00  E=-6.792001D-02  Symmetry=e
              MO Center= -2.2D-16, -5.2D-17, -3.9D-01, r^2= 1.2D+00
   Bfn.  Coefficient  Atom+Function         Bfn.  Coefficient  Atom+Function  
  ----- ------------  ---------------      ----- ------------  ---------------
     7      0.588909  1 C  px                 3      0.488906  1 C  px         
    16     -0.452257  2 O  px                12     -0.349982  2 O  px         
 
 Vector   10  Occ=0.000000D+00  E= 2.815660D-01  Symmetry=a1
              MO Center=  3.3D-16,  1.9D-16, -5.8D-01, r^2= 2.0D+00
   Bfn.  Coefficient  Atom+Function         Bfn.  Coefficient  Atom+Function  
  ----- ------------  ---------------      ----- ------------  ---------------
    15     -1.617425  2 O  s                  9      1.577218  1 C  pz         
     6      1.353203  1 C  s                 18      0.679602  2 O  pz         
    14      0.196658  2 O  pz                 5      0.187498  1 C  pz         
 
 Vector   11  Occ=0.000000D+00  E= 6.217409D-01  Symmetry=e
              MO Center=  1.5D-16, -1.6D-16, -7.3D-01, r^2= 1.5D+00
   Bfn.  Coefficient  Atom+Function         Bfn.  Coefficient  Atom+Function  
  ----- ------------  ---------------      ----- ------------  ---------------
     8      0.795792  1 C  py                 4     -0.753659  1 C  py         
     7     -0.736700  1 C  px                 3      0.697695  1 C  px         
 
 Vector   12  Occ=0.000000D+00  E= 6.217409D-01  Symmetry=e
              MO Center= -7.1D-17, -6.6D-17, -7.3D-01, r^2= 1.5D+00
   Bfn.  Coefficient  Atom+Function         Bfn.  Coefficient  Atom+Function  
  ----- ------------  ---------------      ----- ------------  ---------------
     7     -0.795792  1 C  px                 3      0.753659  1 C  px         
     8     -0.736700  1 C  py                 4      0.697695  1 C  py         
 
 Vector   13  Occ=0.000000D+00  E= 7.470129D-01  Symmetry=a1
              MO Center= -1.3D-16,  1.0D-16, -7.2D-01, r^2= 1.2D+00
   Bfn.  Coefficient  Atom+Function         Bfn.  Coefficient  Atom+Function  
  ----- ------------  ---------------      ----- ------------  ---------------
     5      1.186697  1 C  pz                 9     -0.720079  1 C  pz         
    18      0.464205  2 O  pz                 6      0.443948  1 C  s          
    14      0.283952  2 O  pz         
 
 Vector   14  Occ=0.000000D+00  E= 1.008450D+00  Symmetry=a1
              MO Center=  9.8D-17,  5.7D-17, -5.3D-01, r^2= 1.2D+00
   Bfn.  Coefficient  Atom+Function         Bfn.  Coefficient  Atom+Function  
  ----- ------------  ---------------      ----- ------------  ---------------
     2      1.471013  1 C  s                  6     -1.368557  1 C  s          
    14      0.394262  2 O  pz                15      0.263233  2 O  s          
 
 Vector   15  Occ=0.000000D+00  E= 1.336378D+00  Symmetry=e
              MO Center=  6.6D-15, -1.9D-15,  4.7D-01, r^2= 9.2D-01
   Bfn.  Coefficient  Atom+Function         Bfn.  Coefficient  Atom+Function  
  ----- ------------  ---------------      ----- ------------  ---------------
    16      1.100264  2 O  px                12     -0.972356  2 O  px         
     7     -0.365623  1 C  px                17     -0.312589  2 O  py         
    13      0.276250  2 O  py         
 
 Vector   16  Occ=0.000000D+00  E= 1.336378D+00  Symmetry=e
              MO Center=  2.5D-15,  8.8D-15,  4.7D-01, r^2= 9.2D-01
   Bfn.  Coefficient  Atom+Function         Bfn.  Coefficient  Atom+Function  
  ----- ------------  ---------------      ----- ------------  ---------------
    17      1.100264  2 O  py                13     -0.972356  2 O  py         
     8     -0.365623  1 C  py                16      0.312589  2 O  px         
    12     -0.276250  2 O  px         
 
 Vector   17  Occ=0.000000D+00  E= 1.372062D+00  Symmetry=a1
              MO Center= -9.5D-15, -7.1D-15,  8.2D-01, r^2= 7.6D-01
   Bfn.  Coefficient  Atom+Function         Bfn.  Coefficient  Atom+Function  
  ----- ------------  ---------------      ----- ------------  ---------------
    18      1.378337  2 O  pz                14     -0.922180  2 O  pz         
     2      0.628648  1 C  s                 15     -0.277566  2 O  s          
     5      0.211760  1 C  pz                11     -0.177447  2 O  s          
     9      0.171298  1 C  pz                 6      0.160148  1 C  s          
 

 center of mass
 --------------
 x =   0.00000000 y =   0.00000000 z =  -0.01621908

 moments of inertia (a.u.)
 ------------------
          32.621529934355           0.000000000000           0.000000000000
           0.000000000000          32.621529934355           0.000000000000
           0.000000000000           0.000000000000           0.000000000000
 
     Multipole analysis of the density
     ---------------------------------
 
     L   x y z        total         alpha         beta         nuclear
     -   - - -        -----         -----         ----         -------
     0   0 0 0     -0.000000     -7.000000     -7.000000     14.000000
 
     1   1 0 0      0.000000      0.000000      0.000000      0.000000
     1   0 1 0      0.000000      0.000000      0.000000      0.000000
     1   0 0 1      0.079224      0.151956      0.151956     -0.224688
 
     2   2 0 0     -7.378198     -3.689099     -3.689099      0.000000
     2   1 1 0      0.000000      0.000000      0.000000      0.000000
     2   1 0 1      0.000000      0.000000      0.000000      0.000000
     2   0 2 0     -7.378198     -3.689099     -3.689099      0.000000
     2   0 1 1      0.000000      0.000000      0.000000      0.000000
     2   0 0 2     -9.272580    -12.794588    -12.794588     16.316596
 

 Parallel integral file used       1 records with       0 large values

 
            General Information
            -------------------
          SCF calculation type: DFT
          Wavefunction type:  closed shell.
          No. of atoms     :     2
          No. of electrons :    14
           Alpha electrons :     7
            Beta electrons :     7
          Charge           :     0
          Spin multiplicity:     1
          Use of symmetry is: on ; symmetry adaption is: on 
          Maximum number of iterations: 128
          AO basis - number of functions:    18
                     number of shells:    10
          Convergence on energy requested: 1.00D-06
          Convergence on density requested: 1.00D-05
          Convergence on gradient requested: 5.00D-04
 
              XC Information
              --------------
                        Slater Exchange Functional  1.000 local    
                      VWN V Correlation Functional  1.000 local    
 
             Grid Information
             ----------------
          Grid used for XC integration:  medium    
          Radial quadrature: Mura-Knowles        
          Angular quadrature: Lebedev. 
          Tag              B.-S. Rad. Rad. Pts. Rad. Cut. Ang. Pts.
          ---              ---------- --------- --------- ---------
          C                   0.70       49           5.0       434
          O                   0.60       49           5.0       434
          Grid pruning is: on 
          Number of quadrature shells:    98
          Spatial weights used:  Erf1
 
          Convergence Information
          -----------------------
          Convergence aids based upon iterative change in 
          total energy or number of iterations. 
          Levelshifting, if invoked, occurs when the 
          HOMO/LUMO gap drops below (HL_TOL): 1.00D-02
          DIIS, if invoked, will attempt to extrapolate 
          using up to (NFOCK): 10 stored Fock matrices.

                    Damping( 0%)  Levelshifting(0.5)       DIIS
                  --------------- ------------------- ---------------
          dE  on:    start            ASAP                start   
          dE off:    2 iters        128 iters           128 iters 

 
      Screening Tolerance Information
      -------------------------------
          Density screening/tol_rho: 1.00D-10
          AO Gaussian exp screening on grid/accAOfunc:  14
          CD Gaussian exp screening on grid/accCDfunc:  20
          XC Gaussian exp screening on grid/accXCfunc:  20
          Schwarz screening/accCoul: 1.00D-08

 
 
                            NWChem DFT Gradient Module
                            --------------------------
 
 

  charge          =   0.00
  wavefunction    = closed shell

  Using symmetry


                         DFT ENERGY GRADIENTS

    atom               coordinates                        gradient
                 x          y          z           x          y          z
   1 C       0.000000   0.000000  -1.262491    0.000000   0.000000   0.007110
   2 O       0.000000   0.000000   0.918783    0.000000   0.000000  -0.007110
 
                 ----------------------------------------
                 |  Time  |  1-e(secs)   |  2-e(secs)   |
                 ----------------------------------------
                 |  CPU   |       0.00   |       0.04   |
                 ----------------------------------------
                 |  WALL  |       0.00   |       0.04   |
                 ----------------------------------------

  Step       Energy      Delta E   Gmax     Grms     Xrms     Xmax   Walltime
  ---- ---------------- -------- -------- -------- -------- -------- --------
@    1    -111.78346224 -2.0D-02  0.00711  0.00711  0.06486  0.11234      0.7
                                                                    



                                Z-matrix (autoz)
                                -------- 

 Units are Angstrom for bonds and degrees for angles
 
      Type          Name      I     J     K     L     M      Value     Gradient
      ----------- --------  ----- ----- ----- ----- ----- ---------- ----------
    1 Stretch                  1     2                       1.15428   -0.00711
 
 
                                 NWChem DFT Module
                                 -----------------
 
 


 Summary of "ao basis" -> "ao basis" (cartesian)
 ------------------------------------------------------------------------------
       Tag                 Description            Shells   Functions and Types
 ---------------- ------------------------------  ------  ---------------------
 C                           3-21g                   5        9   3s2p
 O                           3-21g                   5        9   3s2p


      Symmetry analysis of basis
      --------------------------
 
        a1         10
        a2          0
        b1          0
        b2          0
        e           8
 
  Caching 1-el integrals 
 
            General Information
            -------------------
          SCF calculation type: DFT
          Wavefunction type:  closed shell.
          No. of atoms     :     2
          No. of electrons :    14
           Alpha electrons :     7
            Beta electrons :     7
          Charge           :     0
          Spin multiplicity:     1
          Use of symmetry is: on ; symmetry adaption is: on 
          Maximum number of iterations: 128
          AO basis - number of functions:    18
                     number of shells:    10
          Convergence on energy requested: 1.00D-06
          Convergence on density requested: 1.00D-05
          Convergence on gradient requested: 5.00D-04
 
              XC Information
              --------------
                        Slater Exchange Functional  1.000 local    
                      VWN V Correlation Functional  1.000 local    
 
             Grid Information
             ----------------
          Grid used for XC integration:  medium    
          Radial quadrature: Mura-Knowles        
          Angular quadrature: Lebedev. 
          Tag              B.-S. Rad. Rad. Pts. Rad. Cut. Ang. Pts.
          ---              ---------- --------- --------- ---------
          C                   0.70       49           5.0       434
          O                   0.60       49           5.0       434
          Grid pruning is: on 
          Number of quadrature shells:    98
          Spatial weights used:  Erf1
 
          Convergence Information
          -----------------------
          Convergence aids based upon iterative change in 
          total energy or number of iterations. 
          Levelshifting, if invoked, occurs when the 
          HOMO/LUMO gap drops below (HL_TOL): 1.00D-02
          DIIS, if invoked, will attempt to extrapolate 
          using up to (NFOCK): 10 stored Fock matrices.

                    Damping( 0%)  Levelshifting(0.5)       DIIS
                  --------------- ------------------- ---------------
          dE  on:    start            ASAP                start   
          dE off:    2 iters        128 iters           128 iters 

 
      Screening Tolerance Information
      -------------------------------
          Density screening/tol_rho: 1.00D-10
          AO Gaussian exp screening on grid/accAOfunc:  14
          CD Gaussian exp screening on grid/accCDfunc:  20
          XC Gaussian exp screening on grid/accXCfunc:  20
          Schwarz screening/accCoul: 1.00D-08


 Loading old vectors from job with title :



 
      Symmetry analysis of molecular orbitals - initial
      -------------------------------------------------
 
  Numbering of irreducible representations: 
 
     1 a1          2 a2          3 b1          4 b2          5 e       
 
  Orbital symmetries:
 
     1 a1          2 a1          3 a1          4 a1          5 e       
     6 e           7 a1          8 e           9 e          10 a1      
    11 e          12 e          13 a1         14 a1         15 e       
    16 e          17 a1      
 
   Time after variat. SCF:      0.5
   Time prior to 1st pass:      0.5

 #quartets = 1.536D+03 #integrals = 4.753D+03 #direct =  0.0% #cached =100.0%


 Integral file          = ./CO.aoints.0
 Record size in doubles =  65536        No. of integs per rec  =  43688
 Max. records in memory =      2        Max. records in file   =  49464
 No. of bits per label  =      8        No. of bits per value  =     64


 Grid_pts file          = ./CO.gridpts.0
 Record size in doubles =  12289        No. of grid_pts per rec  =   3070
 Max. records in memory =     17        Max. recs in file   =    263790


           Memory utilization after 1st SCF pass: 
           Heap Space remaining (MW):       61.52            61516438
          Stack Space remaining (MW):       61.86            61857508

   convergence    iter        energy       DeltaE   RMS-Dens  Diis-err    time
 ---------------- ----- ----------------- --------- --------- ---------  ------
 d= 0,ls=0.0,diis     1   -111.7834583571 -1.34D+02  6.84D-04  2.02D-04     0.6
 d= 0,ls=0.0,diis     2   -111.7834667298 -8.37D-06  4.96D-04  1.58D-04     0.6
 d= 0,ls=0.0,diis     3   -111.7834587055  8.02D-06  3.69D-04  2.20D-04     0.6
 d= 0,ls=0.0,diis     4   -111.7834789842 -2.03D-05  6.27D-05  4.75D-06     0.6
 d= 0,ls=0.0,diis     5   -111.7834795125 -5.28D-07  4.20D-07  3.62D-10     0.6


         Total DFT energy =     -111.783479512529
      One electron energy =     -196.181064478401
           Coulomb energy =       75.405729497759
    Exchange-Corr. energy =      -12.916059432445
 Nuclear repulsion energy =       21.907914900559

 Numeric. integr. density =       13.999999956510

     Total iterative time =      0.1s


 
                  Occupations of the irreducible representations
                  ----------------------------------------------
 
                     irrep           alpha         beta
                     --------     --------     --------
                     a1                5.0          5.0
                     a2                0.0          0.0
                     b1                0.0          0.0
                     b2                0.0          0.0
                     e                 2.0          2.0
 
 
                       DFT Final Molecular Orbital Analysis
                       ------------------------------------
 
 Vector    1  Occ=2.000000D+00  E=-1.862101D+01  Symmetry=a1
              MO Center= -1.9D-17,  2.6D-19,  4.9D-01, r^2= 1.6D-02
   Bfn.  Coefficient  Atom+Function         Bfn.  Coefficient  Atom+Function  
  ----- ------------  ---------------      ----- ------------  ---------------
    10      0.981472  2 O  s          
 
 Vector    2  Occ=2.000000D+00  E=-9.843289D+00  Symmetry=a1
              MO Center=  7.4D-37, -1.1D-38, -6.7D-01, r^2= 2.9D-02
   Bfn.  Coefficient  Atom+Function         Bfn.  Coefficient  Atom+Function  
  ----- ------------  ---------------      ----- ------------  ---------------
     1      0.983126  1 C  s          
 
 Vector    3  Occ=2.000000D+00  E=-1.082065D+00  Symmetry=a1
              MO Center= -1.3D-33,  1.8D-35,  1.3D-01, r^2= 4.3D-01
   Bfn.  Coefficient  Atom+Function         Bfn.  Coefficient  Atom+Function  
  ----- ------------  ---------------      ----- ------------  ---------------
    15      0.639305  2 O  s                 10     -0.214232  2 O  s          
    11      0.205077  2 O  s                  5      0.193649  1 C  pz         
    14     -0.179316  2 O  pz                18     -0.153177  2 O  pz         
 
 Vector    4  Occ=2.000000D+00  E=-4.892561D-01  Symmetry=a1
              MO Center= -7.1D-17,  4.4D-17,  4.7D-01, r^2= 8.1D-01
   Bfn.  Coefficient  Atom+Function         Bfn.  Coefficient  Atom+Function  
  ----- ------------  ---------------      ----- ------------  ---------------
    15      0.568745  2 O  s                 14      0.382320  2 O  pz         
    18      0.326789  2 O  pz                 6     -0.323650  1 C  s          
     2     -0.185662  1 C  s          
 
 Vector    5  Occ=2.000000D+00  E=-4.244505D-01  Symmetry=e
              MO Center= -2.0D-19,  6.5D-20,  1.7D-01, r^2= 8.4D-01
   Bfn.  Coefficient  Atom+Function         Bfn.  Coefficient  Atom+Function  
  ----- ------------  ---------------      ----- ------------  ---------------
    12      0.434111  2 O  px                16      0.425088  2 O  px         
     3      0.272020  1 C  px                 7      0.206711  1 C  px         
 
 Vector    6  Occ=2.000000D+00  E=-4.244505D-01  Symmetry=e
              MO Center=  5.1D-19,  1.5D-18,  1.7D-01, r^2= 8.4D-01
   Bfn.  Coefficient  Atom+Function         Bfn.  Coefficient  Atom+Function  
  ----- ------------  ---------------      ----- ------------  ---------------
    13      0.434111  2 O  py                17      0.425088  2 O  py         
     4      0.272020  1 C  py                 8      0.206711  1 C  py         
 
 Vector    7  Occ=2.000000D+00  E=-3.087613D-01  Symmetry=a1
              MO Center= -2.5D-20, -7.1D-19, -8.4D-01, r^2= 1.0D+00
   Bfn.  Coefficient  Atom+Function         Bfn.  Coefficient  Atom+Function  
  ----- ------------  ---------------      ----- ------------  ---------------
     6      0.796473  1 C  s                  5     -0.369633  1 C  pz         
    18      0.265411  2 O  pz                14      0.253307  2 O  pz         
     1     -0.156965  1 C  s          
 
 Vector    8  Occ=0.000000D+00  E=-6.981191D-02  Symmetry=e
              MO Center=  1.9D-17,  9.5D-19, -3.9D-01, r^2= 1.2D+00
   Bfn.  Coefficient  Atom+Function         Bfn.  Coefficient  Atom+Function  
  ----- ------------  ---------------      ----- ------------  ---------------
     7      0.601751  1 C  px                 3      0.501824  1 C  px         
    16     -0.461795  2 O  px                12     -0.358525  2 O  px         
 
 Vector    9  Occ=0.000000D+00  E=-6.981191D-02  Symmetry=e
              MO Center=  2.2D-19, -4.5D-18, -3.9D-01, r^2= 1.2D+00
   Bfn.  Coefficient  Atom+Function         Bfn.  Coefficient  Atom+Function  
  ----- ------------  ---------------      ----- ------------  ---------------
     8      0.601751  1 C  py                 4      0.501824  1 C  py         
    17     -0.461795  2 O  py                13     -0.358525  2 O  py         
 
 Vector   10  Occ=0.000000D+00  E= 2.797642D-01  Symmetry=a1
              MO Center= -2.3D-16, -9.0D-17, -5.8D-01, r^2= 2.0D+00
   Bfn.  Coefficient  Atom+Function         Bfn.  Coefficient  Atom+Function  
  ----- ------------  ---------------      ----- ------------  ---------------
    15     -1.604173  2 O  s                  9      1.567651  1 C  pz         
     6      1.341930  1 C  s                 18      0.683657  2 O  pz         
    14      0.201602  2 O  pz                 5      0.193776  1 C  pz         
 
 Vector   11  Occ=0.000000D+00  E= 6.218929D-01  Symmetry=e
              MO Center=  9.2D-17, -5.0D-17, -7.3D-01, r^2= 1.5D+00
   Bfn.  Coefficient  Atom+Function         Bfn.  Coefficient  Atom+Function  
  ----- ------------  ---------------      ----- ------------  ---------------
     7     -0.952464  1 C  px                 3      0.901927  1 C  px         
     8      0.518812  1 C  py                 4     -0.491284  1 C  py         
 
 Vector   12  Occ=0.000000D+00  E= 6.218929D-01  Symmetry=e
              MO Center=  5.3D-17,  9.7D-17, -7.3D-01, r^2= 1.5D+00
   Bfn.  Coefficient  Atom+Function         Bfn.  Coefficient  Atom+Function  
  ----- ------------  ---------------      ----- ------------  ---------------
     8     -0.952464  1 C  py                 4      0.901927  1 C  py         
     7     -0.518812  1 C  px                 3      0.491284  1 C  px         
 
 Vector   13  Occ=0.000000D+00  E= 7.415309D-01  Symmetry=a1
              MO Center= -3.6D-17,  1.6D-16, -7.1D-01, r^2= 1.2D+00
   Bfn.  Coefficient  Atom+Function         Bfn.  Coefficient  Atom+Function  
  ----- ------------  ---------------      ----- ------------  ---------------
     5      1.183544  1 C  pz                 9     -0.737848  1 C  pz         
    18      0.446190  2 O  pz                 6      0.404190  1 C  s          
    14      0.289654  2 O  pz         
 
 Vector   14  Occ=0.000000D+00  E= 1.005222D+00  Symmetry=a1
              MO Center= -1.0D-16, -9.0D-17, -5.5D-01, r^2= 1.2D+00
   Bfn.  Coefficient  Atom+Function         Bfn.  Coefficient  Atom+Function  
  ----- ------------  ---------------      ----- ------------  ---------------
     2      1.471444  1 C  s                  6     -1.385115  1 C  s          
    14      0.386176  2 O  pz                15      0.275983  2 O  s          
 
 Vector   15  Occ=0.000000D+00  E= 1.336015D+00  Symmetry=e
              MO Center=  8.0D-17,  7.0D-16,  4.8D-01, r^2= 9.2D-01
   Bfn.  Coefficient  Atom+Function         Bfn.  Coefficient  Atom+Function  
  ----- ------------  ---------------      ----- ------------  ---------------
    17      1.134471  2 O  py                13     -1.004243  2 O  py         
     8     -0.375204  1 C  py         
 
 Vector   16  Occ=0.000000D+00  E= 1.336015D+00  Symmetry=e
              MO Center= -4.4D-15,  5.0D-16,  4.8D-01, r^2= 9.2D-01
[...]
   Bfn.  Coefficient  Atom+Function         Bfn.  Coefficient  Atom+Function  
  ----- ------------  ---------------      ----- ------------  ---------------
     1      0.983125  1 C  s          
 
 Vector    3  Occ=2.000000D+00  E=-1.083051D+00  Symmetry=a1
              MO Center= -3.8D-18, -1.3D-19,  1.3D-01, r^2= 4.3D-01
   Bfn.  Coefficient  Atom+Function         Bfn.  Coefficient  Atom+Function  
  ----- ------------  ---------------      ----- ------------  ---------------
    15      0.638971  2 O  s                 10     -0.214215  2 O  s          
    11      0.205083  2 O  s                  5      0.194101  1 C  pz         
    14     -0.179680  2 O  pz                18     -0.153115  2 O  pz         
 
 Vector    4  Occ=2.000000D+00  E=-4.891978D-01  Symmetry=a1
              MO Center=  5.3D-18,  2.2D-17,  4.7D-01, r^2= 8.1D-01
   Bfn.  Coefficient  Atom+Function         Bfn.  Coefficient  Atom+Function  
  ----- ------------  ---------------      ----- ------------  ---------------
    15      0.568808  2 O  s                 14      0.382989  2 O  pz         
    18      0.327224  2 O  pz                 6     -0.321883  1 C  s          
     2     -0.185382  1 C  s          
 
 Vector    5  Occ=2.000000D+00  E=-4.250100D-01  Symmetry=e
              MO Center= -2.7D-18,  7.1D-19,  1.7D-01, r^2= 8.3D-01
   Bfn.  Coefficient  Atom+Function         Bfn.  Coefficient  Atom+Function  
  ----- ------------  ---------------      ----- ------------  ---------------
    12      0.441980  2 O  px                16      0.432593  2 O  px         
     3      0.277139  1 C  px                 7      0.210060  1 C  px         
 
 Vector    6  Occ=2.000000D+00  E=-4.250100D-01  Symmetry=e
              MO Center= -8.7D-18, -3.3D-17,  1.7D-01, r^2= 8.3D-01
   Bfn.  Coefficient  Atom+Function         Bfn.  Coefficient  Atom+Function  
  ----- ------------  ---------------      ----- ------------  ---------------
    13      0.441980  2 O  py                17      0.432593  2 O  py         
     4      0.277139  1 C  py                 8      0.210060  1 C  py         
 
 Vector    7  Occ=2.000000D+00  E=-3.086062D-01  Symmetry=a1
              MO Center=  2.6D-17, -1.4D-17, -8.4D-01, r^2= 1.0D+00
   Bfn.  Coefficient  Atom+Function         Bfn.  Coefficient  Atom+Function  
  ----- ------------  ---------------      ----- ------------  ---------------
     6      0.797549  1 C  s                  5     -0.369705  1 C  pz         
    18      0.264472  2 O  pz                14      0.252567  2 O  pz         
     1     -0.157090  1 C  s          
 
 Vector    8  Occ=0.000000D+00  E=-6.918385D-02  Symmetry=e
              MO Center= -1.7D-18, -7.1D-19, -3.9D-01, r^2= 1.2D+00
   Bfn.  Coefficient  Atom+Function         Bfn.  Coefficient  Atom+Function  
  ----- ------------  ---------------      ----- ------------  ---------------
     7      0.557111  1 C  px                 3      0.463903  1 C  px         
    16     -0.427637  2 O  px                12     -0.331649  2 O  px         
     8      0.231325  1 C  py                 4      0.192623  1 C  py         
    17     -0.177565  2 O  py         
 
 Vector    9  Occ=0.000000D+00  E=-6.918385D-02  Symmetry=e
              MO Center=  1.5D-17, -3.6D-17, -3.9D-01, r^2= 1.2D+00
   Bfn.  Coefficient  Atom+Function         Bfn.  Coefficient  Atom+Function  
  ----- ------------  ---------------      ----- ------------  ---------------
     8      0.557111  1 C  py                 4      0.463903  1 C  py         
    17     -0.427637  2 O  py                13     -0.331649  2 O  py         
     7     -0.231325  1 C  px                 3     -0.192623  1 C  px         
    16      0.177565  2 O  px         
 
 Vector   10  Occ=0.000000D+00  E= 2.803719D-01  Symmetry=a1
              MO Center= -9.6D-17,  8.1D-17, -5.8D-01, r^2= 2.0D+00
   Bfn.  Coefficient  Atom+Function         Bfn.  Coefficient  Atom+Function  
  ----- ------------  ---------------      ----- ------------  ---------------
    15     -1.608616  2 O  s                  9      1.570874  1 C  pz         
     6      1.345711  1 C  s                 18      0.682325  2 O  pz         
    14      0.199952  2 O  pz                 5      0.191670  1 C  pz         
 
 Vector   11  Occ=0.000000D+00  E= 6.218429D-01  Symmetry=e
              MO Center=  5.3D-17,  3.2D-16, -7.3D-01, r^2= 1.5D+00
   Bfn.  Coefficient  Atom+Function         Bfn.  Coefficient  Atom+Function  
  ----- ------------  ---------------      ----- ------------  ---------------
     8     -1.070344  1 C  py                 4      1.013589  1 C  py         
     7     -0.174964  1 C  px                 3      0.165686  1 C  px         
 
 Vector   12  Occ=0.000000D+00  E= 6.218429D-01  Symmetry=e
              MO Center= -4.2D-16,  6.9D-17, -7.3D-01, r^2= 1.5D+00
   Bfn.  Coefficient  Atom+Function         Bfn.  Coefficient  Atom+Function  
  ----- ------------  ---------------      ----- ------------  ---------------
     7     -1.070344  1 C  px                 3      1.013589  1 C  px         
     8      0.174964  1 C  py                 4     -0.165686  1 C  py         
 
 Vector   13  Occ=0.000000D+00  E= 7.433592D-01  Symmetry=a1
              MO Center=  1.8D-16, -6.4D-17, -7.1D-01, r^2= 1.2D+00
   Bfn.  Coefficient  Atom+Function         Bfn.  Coefficient  Atom+Function  
  ----- ------------  ---------------      ----- ------------  ---------------
     5      1.184643  1 C  pz                 9     -0.731921  1 C  pz         
    18      0.452210  2 O  pz                 6      0.417347  1 C  s          
    14      0.287828  2 O  pz         
 
 Vector   14  Occ=0.000000D+00  E= 1.006267D+00  Symmetry=a1
              MO Center=  1.8D-16, -3.3D-16, -5.4D-01, r^2= 1.2D+00
   Bfn.  Coefficient  Atom+Function         Bfn.  Coefficient  Atom+Function  
  ----- ------------  ---------------      ----- ------------  ---------------
     2      1.471319  1 C  s                  6     -1.379750  1 C  s          
    14      0.388857  2 O  pz                15      0.271857  2 O  s          
 
 Vector   15  Occ=0.000000D+00  E= 1.336135D+00  Symmetry=e
              MO Center= -1.6D-15, -1.2D-15,  4.8D-01, r^2= 9.2D-01
   Bfn.  Coefficient  Atom+Function         Bfn.  Coefficient  Atom+Function  
  ----- ------------  ---------------      ----- ------------  ---------------
    16      0.917254  2 O  px                12     -0.811516  2 O  px         
    17      0.681201  2 O  py                13     -0.602674  2 O  py         
     7     -0.303842  1 C  px                 8     -0.225649  1 C  py         
 
 Vector   16  Occ=0.000000D+00  E= 1.336135D+00  Symmetry=e
              MO Center= -2.1D-16,  2.9D-16,  4.8D-01, r^2= 9.2D-01
   Bfn.  Coefficient  Atom+Function         Bfn.  Coefficient  Atom+Function  
  ----- ------------  ---------------      ----- ------------  ---------------
    17      0.917254  2 O  py                13     -0.811516  2 O  py         
    16     -0.681201  2 O  px                12      0.602674  2 O  px         
     8     -0.303842  1 C  py                 7      0.225649  1 C  px         
 
 Vector   17  Occ=0.000000D+00  E= 1.373655D+00  Symmetry=a1
              MO Center=  1.9D-15,  8.6D-16,  8.2D-01, r^2= 7.6D-01
   Bfn.  Coefficient  Atom+Function         Bfn.  Coefficient  Atom+Function  
  ----- ------------  ---------------      ----- ------------  ---------------
    18      1.376280  2 O  pz                14     -0.922574  2 O  pz         
     2      0.625663  1 C  s                 15     -0.271741  2 O  s          
     5      0.214724  1 C  pz                11     -0.179344  2 O  s          
     9      0.168987  1 C  pz                 6      0.158396  1 C  s          
 

 center of mass
 --------------
 x =   0.00000000 y =   0.00000000 z =  -0.01575690

 moments of inertia (a.u.)
 ------------------
          32.815566883671           0.000000000000           0.000000000000
           0.000000000000          32.815566883671           0.000000000000
           0.000000000000           0.000000000000           0.000000000000
 
     Multipole analysis of the density
     ---------------------------------
 
     L   x y z        total         alpha         beta         nuclear
     -   - - -        -----         -----         ----         -------
     0   0 0 0     -0.000000     -7.000000     -7.000000     14.000000
 
     1   1 0 0      0.000000      0.000000      0.000000      0.000000
     1   0 1 0      0.000000      0.000000      0.000000      0.000000
     1   0 0 1      0.076003      0.147107      0.147107     -0.218210
 
     2   2 0 0     -7.383621     -3.691810     -3.691810      0.000000
     2   1 1 0     -0.000000     -0.000000     -0.000000      0.000000
     2   1 0 1      0.000000      0.000000      0.000000      0.000000
     2   0 2 0     -7.383621     -3.691810     -3.691810      0.000000
     2   0 1 1      0.000000      0.000000      0.000000      0.000000
     2   0 0 2     -9.274285    -12.843854    -12.843854     16.413422
 

 Parallel integral file used       1 records with       0 large values

 
            General Information
            -------------------
          SCF calculation type: DFT
          Wavefunction type:  closed shell.
          No. of atoms     :     2
          No. of electrons :    14
           Alpha electrons :     7
            Beta electrons :     7
          Charge           :     0
          Spin multiplicity:     1
          Use of symmetry is: on ; symmetry adaption is: on 
          Maximum number of iterations: 128
          AO basis - number of functions:    18
                     number of shells:    10
          Convergence on energy requested: 1.00D-06
          Convergence on density requested: 1.00D-05
          Convergence on gradient requested: 5.00D-04
 
              XC Information
              --------------
                        Slater Exchange Functional  1.000 local    
                      VWN V Correlation Functional  1.000 local    
 
             Grid Information
             ----------------
          Grid used for XC integration:  medium    
          Radial quadrature: Mura-Knowles        
          Angular quadrature: Lebedev. 
          Tag              B.-S. Rad. Rad. Pts. Rad. Cut. Ang. Pts.
          ---              ---------- --------- --------- ---------
          C                   0.70       49           5.0       434
          O                   0.60       49           5.0       434
          Grid pruning is: on 
          Number of quadrature shells:    98
          Spatial weights used:  Erf1
 
          Convergence Information
          -----------------------
          Convergence aids based upon iterative change in 
          total energy or number of iterations. 
          Levelshifting, if invoked, occurs when the 
          HOMO/LUMO gap drops below (HL_TOL): 1.00D-02
          DIIS, if invoked, will attempt to extrapolate 
          using up to (NFOCK): 10 stored Fock matrices.

                    Damping( 0%)  Levelshifting(0.5)       DIIS
                  --------------- ------------------- ---------------
          dE  on:    start            ASAP                start   
          dE off:    2 iters        128 iters           128 iters 

 
      Screening Tolerance Information
      -------------------------------
          Density screening/tol_rho: 1.00D-10
          AO Gaussian exp screening on grid/accAOfunc:  14
          CD Gaussian exp screening on grid/accCDfunc:  20
          XC Gaussian exp screening on grid/accXCfunc:  20
          Schwarz screening/accCoul: 1.00D-08

 
 
                            NWChem DFT Gradient Module
                            --------------------------
 
 

  charge          =   0.00
  wavefunction    = closed shell

  Using symmetry


                         DFT ENERGY GRADIENTS

    atom               coordinates                        gradient
                 x          y          z           x          y          z
   1 C       0.000000   0.000000  -1.265730    0.000000   0.000000   0.000000
   2 O       0.000000   0.000000   0.922021    0.000000   0.000000  -0.000000
 
                 ----------------------------------------
                 |  Time  |  1-e(secs)   |  2-e(secs)   |
                 ----------------------------------------
                 |  CPU   |       0.00   |       0.04   |
                 ----------------------------------------
                 |  WALL  |       0.00   |       0.04   |
                 ----------------------------------------

  Step       Energy      Delta E   Gmax     Grms     Xrms     Xmax   Walltime
  ---- ---------------- -------- -------- -------- -------- -------- --------
@    2    -111.78348517 -2.3D-05  0.00000  0.00000  0.00187  0.00324      1.0
                                     ok       ok                    



                                Z-matrix (autoz)
                                -------- 

 Units are Angstrom for bonds and degrees for angles
 
      Type          Name      I     J     K     L     M      Value     Gradient
      ----------- --------  ----- ----- ----- ----- ----- ---------- ----------
    1 Stretch                  1     2                       1.15771   -0.00000
 

      ----------------------
      Optimization converged
      ----------------------


  Step       Energy      Delta E   Gmax     Grms     Xrms     Xmax   Walltime
  ---- ---------------- -------- -------- -------- -------- -------- --------
@    2    -111.78348517 -2.3D-05  0.00000  0.00000  0.00187  0.00324      1.0
                                     ok       ok                    



                                Z-matrix (autoz)
                                -------- 

 Units are Angstrom for bonds and degrees for angles
 
      Type          Name      I     J     K     L     M      Value     Gradient
      ----------- --------  ----- ----- ----- ----- ----- ---------- ----------
    1 Stretch                  1     2                       1.15771   -0.00000
 
 
 
                         Geometry "geometry" -> "geometry"
                         ---------------------------------
 
 Output coordinates in angstroms (scale by  1.889725989 to convert to a.u.)
 
  No.       Tag          Charge          X              Y              Z
 ---- ---------------- ---------- -------------- -------------- --------------
    1 C                    6.0000     0.00000000     0.00000000    -0.66979556
    2 O                    8.0000     0.00000000     0.00000000     0.48791270
 
      Atomic Mass 
      ----------- 
 
      C                 12.000000
      O                 15.994910
 

 Effective nuclear repulsion energy (a.u.)      21.9403356592

            Nuclear Dipole moment (a.u.) 
            ----------------------------
        X                 Y               Z
 ---------------- ---------------- ----------------
     0.0000000000     0.0000000000    -0.2182099366
 
      Symmetry information
      --------------------
 
 Group name             C4v       
 Group number             18
 Group order               8
 No. of unique centers     2
 
      Symmetry unique atoms
 
     1    2
 
 
                Final and change from initial internal coordinates
                --------------------------------------------------
 


                                Z-matrix (autoz)
                                -------- 

 Units are Angstrom for bonds and degrees for angles
 
      Type          Name      I     J     K     L     M      Value       Change
      ----------- --------  ----- ----- ----- ----- ----- ---------- ----------
    1 Stretch                  1     2                       1.15771   -0.11547
 
 ==============================================================================
                                internuclear distances
 ------------------------------------------------------------------------------
       center one      |      center two      | atomic units |  angstroms
 ------------------------------------------------------------------------------
    2 O                |   1 C                |     2.18775  |     1.15771
 ------------------------------------------------------------------------------
                         number of included internuclear distances:          1
 ==============================================================================




 Task  times  cpu:        0.7s     wall:        1.0s
 
 
                                NWChem Input Module
                                -------------------
 
 
 Summary of allocated global arrays
-----------------------------------
  No active global arrays



                         GA Statistics for process    0
                         ------------------------------

       create   destroy   get      put      acc     scatter   gather  read&inc
calls:  959      959     2.84e+04 5364     5665        0        0     1913     
number of processes/call 1.00e+00 1.00e+00 1.00e+00 0.00e+00 0.00e+00
bytes total:             7.96e+06 2.47e+06 4.67e+06 0.00e+00 0.00e+00 1.53e+04
bytes remote:            0.00e+00 0.00e+00 0.00e+00 0.00e+00 0.00e+00 0.00e+00
Max memory consumed for GA by this process: 101088 bytes
 
 
 
                                     CITATION
                                     --------
                Please cite the following reference when publishing
                           results obtained with NWChem:
 
                 M. Valiev, E.J. Bylaska, N. Govind, K. Kowalski,
              T.P. Straatsma, H.J.J. van Dam, D. Wang, J. Nieplocha,
                        E. Apra, T.L. Windus, W.A. de Jong
                 "NWChem: a comprehensive and scalable open-source
                  solution for large scale molecular simulations"
                      Comput. Phys. Commun. 181, 1477 (2010)
                           doi:10.1016/j.cpc.2010.04.018
 
                                      AUTHORS
                                      -------
          E. Apra, E. J. Bylaska, W. A. de Jong, N. Govind, K. Kowalski,
       T. P. Straatsma, M. Valiev, H. J. J. van Dam, D. Wang, T. L. Windus,
        J. Hammond, J. Autschbach, K. Bhaskaran-Nair, J. Brabec, K. Lopata,
       S. A. Fischer, S. Krishnamoorthy, W. Ma, M. Klemm, O. Villa, Y. Chen,
    V. Anisimov, F. Aquino, S. Hirata, M. T. Hackler, T. Risthaus, M. Malagoli,
       A. Marenich, A. Otero-de-la-Roza, J. Mullin, P. Nichols, R. Peverati,
     J. Pittner, Y. Zhao, P.-D. Fan, A. Fonari, M. Williamson, R. J. Harrison,
       J. R. Rehr, M. Dupuis, D. Silverstein, D. M. A. Smith, J. Nieplocha,
        V. Tipparaju, M. Krishnan, B. E. Van Kuiken, A. Vazquez-Mayagoitia,
        L. Jensen, M. Swart, Q. Wu, T. Van Voorhis, A. A. Auer, M. Nooijen,
      L. D. Crosby, E. Brown, G. Cisneros, G. I. Fann, H. Fruchtl, J. Garza,
        K. Hirao, R. A. Kendall, J. A. Nichols, K. Tsemekhman, K. Wolinski,
     J. Anchell, D. E. Bernholdt, P. Borowski, T. Clark, D. Clerc, H. Dachsel,
   M. J. O. Deegan, K. Dyall, D. Elwood, E. Glendening, M. Gutowski, A. C. Hess,
         J. Jaffe, B. G. Johnson, J. Ju, R. Kobayashi, R. Kutteh, Z. Lin,
   R. Littlefield, X. Long, B. Meng, T. Nakajima, S. Niu, L. Pollack, M. Rosing,
   K. Glaesemann, G. Sandrone, M. Stave, H. Taylor, G. Thomas, J. H. van Lenthe,
                               A. T. Wong, Z. Zhang.

 Total times  cpu:        0.7s     wall:        1.0s
MA_summarize_allocated_blocks: starting scan ...
MA_summarize_allocated_blocks: scan completed: 0 heap blocks, 0 stack blocks
MA usage statistics:

	allocation statistics:
					      heap	     stack
					      ----	     -----
	current number of blocks	         0	         0
	maximum number of blocks	        25	        53
	current total bytes		         0	         0
	maximum total bytes		   2730304	  22510328
	maximum total K-bytes		      2731	     22511
	maximum total M-bytes		         3	        23
